nqpoint: 153    
npath: 3      
segment_nqpoint:
- 51
- 51
- 51
labels:
- [ 'Γ', 'X' ]
- [ 'X', 'M' ]
- [ 'M', 'Γ' ]
reciprocal_lattice:
- [   0.30121098,   0.17390434,   0.00000000 ] # a*
- [   0.00000000,   0.34780837,   0.00000000 ] # b*
- [   0.00000000,   0.00000000,   0.07279511 ] # c*
natom: 6      
lattice:
- [     3.319932129999999,    -0.000000020000000,     0.000000000000000 ] # a
- [    -1.659967610000000,     2.875146500000000,     0.000000000000000 ] # b
- [     0.000000000000000,     0.000000000000000,    13.737187300000000 ] # c
points:
- symbol: W  # 1
  coordinates: [  0.666667000000000,  0.333333000000000,  0.750000000000000 ]
  mass: 183.840000
- symbol: W  # 2
  coordinates: [  0.333333000000000,  0.666667000000000,  0.250000000000000 ]
  mass: 183.840000
- symbol: Se # 3
  coordinates: [  0.333333000000000,  0.666667000000000,  0.871000790000000 ]
  mass: 78.960000
- symbol: Se # 4
  coordinates: [  0.666667000000000,  0.333333000000000,  0.371000790000000 ]
  mass: 78.960000
- symbol: Se # 5
  coordinates: [  0.333333000000000,  0.666667000000000,  0.628999210000000 ]
  mass: 78.960000
- symbol: Se # 6
  coordinates: [  0.666667000000000,  0.333333000000000,  0.128999210000000 ]
  mass: 78.960000

phonon:
- q-position: [    0.0000000,    0.0000000,    0.0000000 ]
  distance:    0.0000000
  band:
  - # 1
    frequency:    0.0099873470
    eigenvector:
    - # atom 1
      - [ -0.04434468851028,  0.00000000000000 ]
      - [ -0.51672246788224,  0.00000000000000 ]
      - [ -0.00000000000694,  0.00000000000000 ]
    - # atom 2
      - [ -0.04434431090051,  0.00000000000000 ]
      - [ -0.51672223996694,  0.00000000000000 ]
      - [ -0.00000000000694,  0.00000000000000 ]
    - # atom 3
      - [ -0.02906107919475,  0.00000000000000 ]
      - [ -0.33863159912846,  0.00000000000000 ]
      - [ -0.00000000000455,  0.00000000000000 ]
    - # atom 4
      - [ -0.02906075117708,  0.00000000000000 ]
      - [ -0.33863127556270,  0.00000000000000 ]
      - [ -0.00000000000455,  0.00000000000000 ]
    - # atom 5
      - [ -0.02906107919475,  0.00000000000000 ]
      - [ -0.33863159912846,  0.00000000000000 ]
      - [ -0.00000000000455,  0.00000000000000 ]
    - # atom 6
      - [ -0.02906075117708,  0.00000000000000 ]
      - [ -0.33863127556270,  0.00000000000000 ]
      - [ -0.00000000000455,  0.00000000000000 ]
  - # 2
    frequency:    0.0099873603
    eigenvector:
    - # atom 1
      - [ -0.51672212187600,  0.00000000000000 ]
      - [  0.04434425390442,  0.00000000000000 ]
      - [ -0.00000000000477,  0.00000000000000 ]
    - # atom 2
      - [ -0.51672234982095,  0.00000000000000 ]
      - [  0.04434463151749,  0.00000000000000 ]
      - [ -0.00000000000477,  0.00000000000000 ]
    - # atom 3
      - [ -0.33863136563969,  0.00000000000000 ]
      - [  0.02906079466012,  0.00000000000000 ]
      - [ -0.00000000000312,  0.00000000000000 ]
    - # atom 4
      - [ -0.33863168922539,  0.00000000000000 ]
      - [  0.02906112268028,  0.00000000000000 ]
      - [ -0.00000000000312,  0.00000000000000 ]
    - # atom 5
      - [ -0.33863136563969,  0.00000000000000 ]
      - [  0.02906079466012,  0.00000000000000 ]
      - [ -0.00000000000313,  0.00000000000000 ]
    - # atom 6
      - [ -0.33863168922539,  0.00000000000000 ]
      - [  0.02906112268028,  0.00000000000000 ]
      - [ -0.00000000000313,  0.00000000000000 ]
  - # 3
    frequency:    0.0158707820
    eigenvector:
    - # atom 1
      - [  0.00000000000534,  0.00000000000000 ]
      - [  0.00000000000651,  0.00000000000000 ]
      - [ -0.51860375244535,  0.00000000000000 ]
    - # atom 2
      - [  0.00000000000535,  0.00000000000000 ]
      - [  0.00000000000651,  0.00000000000000 ]
      - [ -0.51860375244534,  0.00000000000000 ]
    - # atom 3
      - [  0.00000000000350,  0.00000000000000 ]
      - [  0.00000000000427,  0.00000000000000 ]
      - [ -0.33988979680891,  0.00000000000000 ]
    - # atom 4
      - [  0.00000000000351,  0.00000000000000 ]
      - [  0.00000000000426,  0.00000000000000 ]
      - [ -0.33988979680891,  0.00000000000000 ]
    - # atom 5
      - [  0.00000000000350,  0.00000000000000 ]
      - [  0.00000000000427,  0.00000000000000 ]
      - [ -0.33988979680891,  0.00000000000000 ]
    - # atom 6
      - [  0.00000000000350,  0.00000000000000 ]
      - [  0.00000000000426,  0.00000000000000 ]
      - [ -0.33988979680891,  0.00000000000000 ]
  - # 4
    frequency:    0.2643438735
    eigenvector:
    - # atom 1
      - [  0.45319121771899,  0.00000000000000 ]
      - [ -0.24351583481563,  0.00000000000000 ]
      - [ -0.00000000000000,  0.00000000000000 ]
    - # atom 2
      - [ -0.45319059059696,  0.00000000000000 ]
      - [  0.24351556517094,  0.00000000000000 ]
      - [ -0.00000000000000,  0.00000000000000 ]
    - # atom 3
      - [  0.30215649578026,  0.00000000000000 ]
      - [ -0.16235947883404,  0.00000000000000 ]
      - [ -0.00000000000000,  0.00000000000000 ]
    - # atom 4
      - [ -0.30215627157191,  0.00000000000000 ]
      - [  0.16235931597982,  0.00000000000000 ]
      - [ -0.00000000000000,  0.00000000000000 ]
    - # atom 5
      - [  0.30215649578026,  0.00000000000000 ]
      - [ -0.16235947883404,  0.00000000000000 ]
      - [ -0.00000000000000,  0.00000000000000 ]
    - # atom 6
      - [ -0.30215627157191,  0.00000000000000 ]
      - [  0.16235931597982,  0.00000000000000 ]
      - [ -0.00000000000000,  0.00000000000000 ]
  - # 5
    frequency:    0.2643441609
    eigenvector:
    - # atom 1
      - [  0.24351557080864,  0.00000000000000 ]
      - [  0.45319072381597,  0.00000000000000 ]
      - [  0.00000000000000,  0.00000000000000 ]
    - # atom 2
      - [ -0.24351584043961,  0.00000000000000 ]
      - [ -0.45319135091111,  0.00000000000000 ]
      - [  0.00000000000000,  0.00000000000000 ]
    - # atom 3
      - [  0.16235931176143,  0.00000000000000 ]
      - [  0.30215617168632,  0.00000000000000 ]
      - [  0.00000000000000,  0.00000000000000 ]
    - # atom 4
      - [ -0.16235947460697,  0.00000000000000 ]
      - [ -0.30215639587669,  0.00000000000000 ]
      - [  0.00000000000000,  0.00000000000000 ]
    - # atom 5
      - [  0.16235931176143,  0.00000000000000 ]
      - [  0.30215617168632,  0.00000000000000 ]
      - [  0.00000000000000,  0.00000000000000 ]
    - # atom 6
      - [ -0.16235947460697,  0.00000000000000 ]
      - [ -0.30215639587669,  0.00000000000000 ]
      - [  0.00000000000000,  0.00000000000000 ]
  - # 6
    frequency:    0.7305838611
    eigenvector:
    - # atom 1
      - [  0.00000000000000,  0.00000000000000 ]
      - [ -0.00000000000000,  0.00000000000000 ]
      - [  0.52111030316298,  0.00000000000000 ]
    - # atom 2
      - [ -0.00000000000000,  0.00000000000000 ]
      - [ -0.00000000000000,  0.00000000000000 ]
      - [ -0.52111030316299,  0.00000000000000 ]
    - # atom 3
      - [  0.00000000000000,  0.00000000000000 ]
      - [ -0.00000000000000,  0.00000000000000 ]
      - [  0.33796749247330,  0.00000000000000 ]
    - # atom 4
      - [ -0.00000000000000,  0.00000000000000 ]
      - [ -0.00000000000000,  0.00000000000000 ]
      - [ -0.33796749247331,  0.00000000000000 ]
    - # atom 5
      - [  0.00000000000000,  0.00000000000000 ]
      - [ -0.00000000000000,  0.00000000000000 ]
      - [  0.33796749247330,  0.00000000000000 ]
    - # atom 6
      - [ -0.00000000000000,  0.00000000000000 ]
      - [ -0.00000000000000,  0.00000000000000 ]
      - [ -0.33796749247331,  0.00000000000000 ]
  - # 7
    frequency:    3.2975832810
    eigenvector:
    - # atom 1
      - [  0.00000000000000,  0.00000000000000 ]
      - [ -0.00000000000000,  0.00000000000000 ]
      - [ -0.00000000000000,  0.00000000000000 ]
    - # atom 2
      - [  0.00000000000000,  0.00000000000000 ]
      - [ -0.00000000000000,  0.00000000000000 ]
      - [  0.00000000000000,  0.00000000000000 ]
    - # atom 3
      - [  0.35145847199056,  0.00000000000000 ]
      - [ -0.35560050780591,  0.00000000000000 ]
      - [ -0.00000000000000,  0.00000000000000 ]
    - # atom 4
      - [ -0.35149393075748,  0.00000000000000 ]
      - [  0.35563638446437,  0.00000000000000 ]
      - [  0.00000000000000,  0.00000000000000 ]
    - # atom 5
      - [ -0.35145847199056,  0.00000000000000 ]
      - [  0.35560050780591,  0.00000000000000 ]
      - [ -0.00000000000000,  0.00000000000000 ]
    - # atom 6
      - [  0.35149393075748,  0.00000000000000 ]
      - [ -0.35563638446437,  0.00000000000000 ]
      - [  0.00000000000000,  0.00000000000000 ]
  - # 8
    frequency:    3.2975850852
    eigenvector:
    - # atom 1
      - [  0.00000000000000,  0.00000000000000 ]
      - [  0.00000000000000,  0.00000000000000 ]
      - [  0.00000000000000,  0.00000000000000 ]
    - # atom 2
      - [  0.00000000000000,  0.00000000000000 ]
      - [ -0.00000000000000,  0.00000000000000 ]
      - [ -0.00000000000000,  0.00000000000000 ]
    - # atom 3
      - [  0.35563638446439,  0.00000000000000 ]
      - [  0.35149393075751,  0.00000000000000 ]
      - [  0.00000000000000,  0.00000000000000 ]
    - # atom 4
      - [ -0.35560050780589,  0.00000000000000 ]
      - [ -0.35145847199053,  0.00000000000000 ]
      - [ -0.00000000000000,  0.00000000000000 ]
    - # atom 5
      - [ -0.35563638446439,  0.00000000000000 ]
      - [ -0.35149393075751,  0.00000000000000 ]
      - [  0.00000000000000,  0.00000000000000 ]
    - # atom 6
      - [  0.35560050780589,  0.00000000000000 ]
      - [  0.35145847199053,  0.00000000000000 ]
      - [ -0.00000000000000,  0.00000000000000 ]
  - # 9
    frequency:    3.3155156815
    eigenvector:
    - # atom 1
      - [ -0.00000000000000,  0.00000000000000 ]
      - [  0.00000000000000,  0.00000000000000 ]
      - [ -0.00000000000000,  0.00000000000000 ]
    - # atom 2
      - [ -0.00000000000000,  0.00000000000000 ]
      - [  0.00000000000000,  0.00000000000000 ]
      - [ -0.00000000000000,  0.00000000000000 ]
    - # atom 3
      - [ -0.35149393066545,  0.00000000000000 ]
      - [  0.35563638455534,  0.00000000000000 ]
      - [  0.00000000000000,  0.00000000000000 ]
    - # atom 4
      - [ -0.35145847189851,  0.00000000000000 ]
      - [  0.35560050789689,  0.00000000000000 ]
      - [ -0.00000000000000,  0.00000000000000 ]
    - # atom 5
      - [  0.35149393066545,  0.00000000000000 ]
      - [ -0.35563638455534,  0.00000000000000 ]
      - [  0.00000000000000,  0.00000000000000 ]
    - # atom 6
      - [  0.35145847189851,  0.00000000000000 ]
      - [ -0.35560050789689,  0.00000000000000 ]
      - [ -0.00000000000000,  0.00000000000000 ]
  - # 10
    frequency:    3.3155174955
    eigenvector:
    - # atom 1
      - [ -0.00000000000000,  0.00000000000000 ]
      - [ -0.00000000000000,  0.00000000000000 ]
      - [ -0.00000000000000,  0.00000000000000 ]
    - # atom 2
      - [  0.00000000000000,  0.00000000000000 ]
      - [  0.00000000000000,  0.00000000000000 ]
      - [ -0.00000000000000,  0.00000000000000 ]
    - # atom 3
      - [ -0.35560050789686,  0.00000000000000 ]
      - [ -0.35145847189849,  0.00000000000000 ]
      - [  0.00000000000000,  0.00000000000000 ]
    - # atom 4
      - [ -0.35563638455537,  0.00000000000000 ]
      - [ -0.35149393066547,  0.00000000000000 ]
      - [ -0.00000000000000,  0.00000000000000 ]
    - # atom 5
      - [  0.35560050789686,  0.00000000000000 ]
      - [  0.35145847189849,  0.00000000000000 ]
      - [  0.00000000000000,  0.00000000000000 ]
    - # atom 6
      - [  0.35563638455537,  0.00000000000000 ]
      - [  0.35149393066547,  0.00000000000000 ]
      - [ -0.00000000000000,  0.00000000000000 ]
  - # 11
    frequency:    5.1083641292
    eigenvector:
    - # atom 1
      - [ -0.24696580059334,  0.00000000000000 ]
      - [  0.41234288291831,  0.00000000000000 ]
      - [  0.00000000000000,  0.00000000000000 ]
    - # atom 2
      - [ -0.24697951384874,  0.00000000000000 ]
      - [  0.41236590744556,  0.00000000000000 ]
      - [  0.00000000000000,  0.00000000000000 ]
    - # atom 3
      - [  0.18842429492253,  0.00000000000000 ]
      - [ -0.31459990488847,  0.00000000000000 ]
      - [  0.00000000000000,  0.00000000000000 ]
    - # atom 4
      - [  0.18843439981543,  0.00000000000000 ]
      - [ -0.31461726124465,  0.00000000000000 ]
      - [ -0.00000000000000,  0.00000000000000 ]
    - # atom 5
      - [  0.18842429492253,  0.00000000000000 ]
      - [ -0.31459990488846,  0.00000000000000 ]
      - [ -0.00000000000000,  0.00000000000000 ]
    - # atom 6
      - [  0.18843439981543,  0.00000000000000 ]
      - [ -0.31461726124465,  0.00000000000000 ]
      - [  0.00000000000000,  0.00000000000000 ]
  - # 12
    frequency:    5.1083665520
    eigenvector:
    - # atom 1
      - [  0.41236597476024,  0.00000000000000 ]
      - [  0.24697938941868,  0.00000000000000 ]
      - [ -0.00000000000000,  0.00000000000000 ]
    - # atom 2
      - [  0.41234295021765,  0.00000000000000 ]
      - [  0.24696567616318,  0.00000000000000 ]
      - [ -0.00000000000000,  0.00000000000000 ]
    - # atom 3
      - [ -0.31461721713831,  0.00000000000000 ]
      - [ -0.18843448136516,  0.00000000000000 ]
      - [ -0.00000000000000,  0.00000000000000 ]
    - # atom 4
      - [ -0.31459986077615,  0.00000000000000 ]
      - [ -0.18842437646216,  0.00000000000000 ]
      - [ -0.00000000000000,  0.00000000000000 ]
    - # atom 5
      - [ -0.31461721713831,  0.00000000000000 ]
      - [ -0.18843448136516,  0.00000000000000 ]
      - [  0.00000000000000,  0.00000000000000 ]
    - # atom 6
      - [ -0.31459986077615,  0.00000000000000 ]
      - [ -0.18842437646216,  0.00000000000000 ]
      - [  0.00000000000000,  0.00000000000000 ]
  - # 13
    frequency:    5.1524091259
    eigenvector:
    - # atom 1
      - [  0.24604494297057, -0.00000000000000 ]
      - [ -0.41808230127990,  0.00000000000000 ]
      - [ -0.00000000000000,  0.00000000000000 ]
    - # atom 2
      - [ -0.24603142640430,  0.00000000000000 ]
      - [  0.41805945691291,  0.00000000000000 ]
      - [ -0.00000000000000,  0.00000000000000 ]
    - # atom 3
      - [ -0.18451607090303,  0.00000000000000 ]
      - [  0.31353175656532,  0.00000000000000 ]
      - [ -0.00000000000000,  0.00000000000000 ]
    - # atom 4
      - [  0.18450558545312,  0.00000000000000 ]
      - [ -0.31351442979758,  0.00000000000000 ]
      - [ -0.00000000000000,  0.00000000000000 ]
    - # atom 5
      - [ -0.18451607090303,  0.00000000000000 ]
      - [  0.31353175656532,  0.00000000000000 ]
      - [  0.00000000000000,  0.00000000000000 ]
    - # atom 6
      - [  0.18450558545312,  0.00000000000000 ]
      - [ -0.31351442979758,  0.00000000000000 ]
      - [  0.00000000000000,  0.00000000000000 ]
  - # 14
    frequency:    5.1524115683
    eigenvector:
    - # atom 1
      - [ -0.41805952513601,  0.00000000000000 ]
      - [ -0.24603130255732,  0.00000000000000 ]
      - [  0.00000000000000,  0.00000000000000 ]
    - # atom 2
      - [  0.41808236951819,  0.00000000000000 ]
      - [  0.24604481912347,  0.00000000000000 ]
      - [ -0.00000000000000,  0.00000000000000 ]
    - # atom 3
      - [  0.31351438430283,  0.00000000000000 ]
      - [  0.18450566802109,  0.00000000000000 ]
      - [  0.00000000000000,  0.00000000000000 ]
    - # atom 4
      - [ -0.31353171107707,  0.00000000000000 ]
      - [ -0.18451615348031,  0.00000000000000 ]
      - [  0.00000000000000,  0.00000000000000 ]
    - # atom 5
      - [  0.31351438430283,  0.00000000000000 ]
      - [  0.18450566802109,  0.00000000000000 ]
      - [ -0.00000000000000,  0.00000000000000 ]
    - # atom 6
      - [ -0.31353171107707,  0.00000000000000 ]
      - [ -0.18451615348031,  0.00000000000000 ]
      - [ -0.00000000000000,  0.00000000000000 ]
  - # 15
    frequency:    7.3847128869
    eigenvector:
    - # atom 1
      - [ -0.00000000000000,  0.00000000000000 ]
      - [  0.00000000000000,  0.00000000000000 ]
      - [ -0.00000000000001,  0.00000000000000 ]
    - # atom 2
      - [  0.00000000000000,  0.00000000000000 ]
      - [  0.00000000000000,  0.00000000000000 ]
      - [  0.00000000000001,  0.00000000000000 ]
    - # atom 3
      - [ -0.00000000000000,  0.00000000000000 ]
      - [ -0.00000000000000,  0.00000000000000 ]
      - [ -0.49999999999999,  0.00000000000000 ]
    - # atom 4
      - [  0.00000000000000,  0.00000000000000 ]
      - [ -0.00000000000000,  0.00000000000000 ]
      - [  0.50000000000000,  0.00000000000000 ]
    - # atom 5
      - [ -0.00000000000000,  0.00000000000000 ]
      - [ -0.00000000000000,  0.00000000000000 ]
      - [  0.50000000000000,  0.00000000000000 ]
    - # atom 6
      - [  0.00000000000000,  0.00000000000000 ]
      - [ -0.00000000000000,  0.00000000000000 ]
      - [ -0.50000000000001,  0.00000000000000 ]
  - # 16
    frequency:    7.4299894454
    eigenvector:
    - # atom 1
      - [  0.00000000000000,  0.00000000000000 ]
      - [ -0.00000000000000,  0.00000000000000 ]
      - [  0.47795821149697,  0.00000000000000 ]
    - # atom 2
      - [ -0.00000000000000,  0.00000000000000 ]
      - [ -0.00000000000000,  0.00000000000000 ]
      - [ -0.47795821149697,  0.00000000000000 ]
    - # atom 3
      - [ -0.00000000000000,  0.00000000000000 ]
      - [ -0.00000000000000,  0.00000000000000 ]
      - [ -0.36848062911273,  0.00000000000000 ]
    - # atom 4
      - [  0.00000000000000,  0.00000000000000 ]
      - [  0.00000000000000,  0.00000000000000 ]
      - [  0.36848062911273,  0.00000000000000 ]
    - # atom 5
      - [  0.00000000000000,  0.00000000000000 ]
      - [  0.00000000000000,  0.00000000000000 ]
      - [ -0.36848062911271,  0.00000000000000 ]
    - # atom 6
      - [ -0.00000000000000,  0.00000000000000 ]
      - [ -0.00000000000000,  0.00000000000000 ]
      - [  0.36848062911272,  0.00000000000000 ]
  - # 17
    frequency:    7.4706523757
    eigenvector:
    - # atom 1
      - [  0.00000000000001,  0.00000000000000 ]
      - [  0.00000000000000,  0.00000000000000 ]
      - [  0.00000000000011,  0.00000000000000 ]
    - # atom 2
      - [ -0.00000000000000,  0.00000000000000 ]
      - [  0.00000000000001,  0.00000000000000 ]
      - [  0.00000000000011,  0.00000000000000 ]
    - # atom 3
      - [ -0.00000000000000,  0.00000000000000 ]
      - [  0.00000000000000,  0.00000000000000 ]
      - [  0.49999999999992,  0.00000000000000 ]
    - # atom 4
      - [  0.00000000000000,  0.00000000000000 ]
      - [  0.00000000000000,  0.00000000000000 ]
      - [  0.49999999999992,  0.00000000000000 ]
    - # atom 5
      - [ -0.00000000000000,  0.00000000000000 ]
      - [  0.00000000000000,  0.00000000000000 ]
      - [ -0.50000000000009,  0.00000000000000 ]
    - # atom 6
      - [  0.00000000000000,  0.00000000000000 ]
      - [  0.00000000000000,  0.00000000000000 ]
      - [ -0.50000000000008,  0.00000000000000 ]
  - # 18
    frequency:    7.4873108649
    eigenvector:
    - # atom 1
      - [ -0.00000000000000,  0.00000000000000 ]
      - [ -0.00000000000000,  0.00000000000000 ]
      - [ -0.48067676035940,  0.00000000000000 ]
    - # atom 2
      - [ -0.00000000000000,  0.00000000000000 ]
      - [ -0.00000000000000,  0.00000000000000 ]
      - [ -0.48067676035940,  0.00000000000000 ]
    - # atom 3
      - [  0.00000000000000,  0.00000000000000 ]
      - [ -0.00000000000000,  0.00000000000000 ]
      - [  0.36670823010301,  0.00000000000000 ]
    - # atom 4
      - [  0.00000000000000,  0.00000000000000 ]
      - [ -0.00000000000000,  0.00000000000000 ]
      - [  0.36670823010301,  0.00000000000000 ]
    - # atom 5
      - [ -0.00000000000000,  0.00000000000000 ]
      - [ -0.00000000000000,  0.00000000000000 ]
      - [  0.36670823010278,  0.00000000000000 ]
    - # atom 6
      - [ -0.00000000000000,  0.00000000000000 ]
      - [  0.00000000000000,  0.00000000000000 ]
      - [  0.36670823010278,  0.00000000000000 ]

- q-position: [    0.0000000,    0.0100000,    0.0000000 ]
  distance:    0.0034781
  band:
  - # 1
    frequency:    0.0468506372
    eigenvector:
    - # atom 1
      - [ -0.00000000000241,  0.00000000000000 ]
      - [ -0.00000000000003, -0.00000000000022 ]
      - [ -0.51846347818326, -0.01155237866176 ]
    - # atom 2
      - [ -0.00000000000242, -0.00000000000011 ]
      - [ -0.00000000000002, -0.00000000000022 ]
      - [ -0.51846384467705, -0.01153564136714 ]
    - # atom 3
      - [  0.00000000010701, -0.00000000295982 ]
      - [ -0.00039289128660,  0.01054893114249 ]
      - [ -0.33965041063077, -0.00756633439156 ]
    - # atom 4
      - [  0.00000000010508, -0.00000001215029 ]
      - [ -0.00007702607930,  0.01055595751762 ]
      - [ -0.33965057340845, -0.00755884784536 ]
    - # atom 5
      - [ -0.00000000011018,  0.00000000295986 ]
      - [  0.00039289128657, -0.01054893114278 ]
      - [ -0.33965041063076, -0.00756633439156 ]
    - # atom 6
      - [ -0.00000000010824,  0.00000001215010 ]
      - [  0.00007702607927, -0.01055595751790 ]
      - [ -0.33965057340845, -0.00755884784536 ]
  - # 2
    frequency:    0.0515522033
    eigenvector:
    - # atom 1
      - [  0.51862472757079,  0.00000000000000 ]
      - [  0.00000042258027, -0.00000161320108 ]
      - [ -0.00000000000241, -0.00000000000006 ]
    - # atom 2
      - [  0.51797827675931,  0.02589022537319 ]
      - [  0.00000001323917, -0.00000222467702 ]
      - [ -0.00000000000242, -0.00000000000006 ]
    - # atom 3
      - [  0.33984443371862, -0.00445101179801 ]
      - [  0.00000029029512, -0.00000105163607 ]
      - [ -0.00000001609815, -0.00000000312247 ]
    - # atom 4
      - [  0.33919879504016,  0.02141082189882 ]
      - [ -0.00000010481213, -0.00000146632810 ]
      - [ -0.00000002265508, -0.00000000102814 ]
    - # atom 5
      - [  0.33984443371862, -0.00445101179801 ]
      - [  0.00000029029512, -0.00000105163616 ]
      - [  0.00000001609498,  0.00000000312239 ]
    - # atom 6
      - [  0.33919879504016,  0.02141082189882 ]
      - [ -0.00000010481213, -0.00000146632820 ]
      - [  0.00000002265191,  0.00000000102807 ]
  - # 3
    frequency:    0.1239543222
    eigenvector:
    - # atom 1
      - [ -0.00000238087358,  0.00000000000000 ]
      - [ -0.00315871461522, -0.51878189400294 ]
      - [  0.00000000000022,  0.00000000000002 ]
    - # atom 2
      - [ -0.00000149046373,  0.00000036692494 ]
      - [ -0.02959995058916, -0.51794629592686 ]
      - [  0.00000000000022,  0.00000000000002 ]
    - # atom 3
      - [ -0.00000156736789,  0.00000001981396 ]
      - [  0.00238537236194, -0.33969774038856 ]
      - [ -0.00524842996373, -0.00001903293959 ]
    - # atom 4
      - [ -0.00000096327682,  0.00000032241626 ]
      - [ -0.02382680881501, -0.33886925034006 ]
      - [ -0.00523675657607,  0.00035034514417 ]
    - # atom 5
      - [ -0.00000156736789,  0.00000001981396 ]
      - [  0.00238537236194, -0.33969774038855 ]
      - [  0.00524842996402,  0.00001903293962 ]
    - # atom 6
      - [ -0.00000096327682,  0.00000032241626 ]
      - [ -0.02382680881501, -0.33886925034006 ]
      - [  0.00523675657636, -0.00035034514415 ]
  - # 4
    frequency:    0.2692073120
    eigenvector:
    - # atom 1
      - [  0.51448660448946,  0.00000000000000 ]
      - [ -0.00000273226390, -0.00000274415764 ]
      - [  0.00000000000000,  0.00000000000000 ]
    - # atom 2
      - [ -0.51382699828853, -0.02603566882571 ]
      - [  0.00000223930194,  0.00000169420717 ]
      - [  0.00000000000000,  0.00000000000000 ]
    - # atom 3
      - [  0.34297803744918, -0.00424005551570 ]
      - [ -0.00000179171709, -0.00000184737194 ]
      - [ -0.00000002941474,  0.00000003051071 ]
    - # atom 4
      - [ -0.34232391045486, -0.02159108277656 ]
      - [  0.00000160732936,  0.00000112158197 ]
      - [  0.00000001838174, -0.00000002318326 ]
    - # atom 5
      - [  0.34297803744918, -0.00424005551570 ]
      - [ -0.00000179171709, -0.00000184737194 ]
      - [  0.00000002941474, -0.00000003051071 ]
    - # atom 6
      - [ -0.34232391045486, -0.02159108277656 ]
      - [  0.00000160732936,  0.00000112158197 ]
      - [ -0.00000001838174,  0.00000002318326 ]
  - # 5
    frequency:    0.2904469109
    eigenvector:
    - # atom 1
      - [ -0.00000302066747,  0.00000000000000 ]
      - [ -0.39029031138757, -0.33546439888295 ]
      - [  0.00000000000000,  0.00000000000000 ]
    - # atom 2
      - [  0.00000376634993, -0.00000000843762 ]
      - [  0.40710532916698,  0.31484676412253 ]
      - [  0.00000000000001,  0.00000000000001 ]
    - # atom 3
      - [ -0.00000202122183,  0.00000002634092 ]
      - [ -0.25721434632033, -0.22666828390126 ]
      - [ -0.00363329856306,  0.00418526832935 ]
    - # atom 4
      - [  0.00000242520272, -0.00000002905123 ]
      - [  0.27376778075758,  0.20637096362970 ]
      - [  0.00336901968309, -0.00440080304555 ]
    - # atom 5
      - [ -0.00000202122183,  0.00000002634092 ]
      - [ -0.25721434632033, -0.22666828390126 ]
      - [  0.00363329856307, -0.00418526832935 ]
    - # atom 6
      - [  0.00000242520272, -0.00000002905123 ]
      - [  0.27376778075758,  0.20637096362970 ]
      - [ -0.00336901968307,  0.00440080304556 ]
  - # 6
    frequency:    0.7307878660
    eigenvector:
    - # atom 1
      - [ -0.00000000000000,  0.00000000000000 ]
      - [  0.00000000000000,  0.00000000000000 ]
      - [ -0.52072404864330, -0.01904561408550 ]
    - # atom 2
      - [  0.00000000000000, -0.00000000000000 ]
      - [ -0.00000000000001,  0.00000000000000 ]
      - [  0.52072469577317,  0.01902808592289 ]
    - # atom 3
      - [  0.00000000015510, -0.00000000308198 ]
      - [ -0.00060986964637,  0.01219525575488 ]
      - [ -0.33755056338473, -0.01234434397904 ]
    - # atom 4
      - [ -0.00000000036266,  0.00000001486839 ]
      - [  0.00028224613482, -0.01220722674051 ]
      - [  0.33755086228019,  0.01233628413008 ]
    - # atom 5
      - [ -0.00000000015511,  0.00000000308198 ]
      - [  0.00060986964638, -0.01219525575488 ]
      - [ -0.33755056338473, -0.01234434397904 ]
    - # atom 6
      - [  0.00000000036267, -0.00000001486839 ]
      - [ -0.00028224613483,  0.01220722674051 ]
      - [  0.33755086228019,  0.01233628413008 ]
  - # 7
    frequency:    3.2985653991
    eigenvector:
    - # atom 1
      - [  0.00000000000000,  0.00000000000000 ]
      - [ -0.00000000000000,  0.00000000000000 ]
      - [ -0.00000001217484, -0.00000409099813 ]
    - # atom 2
      - [ -0.00000000000000, -0.00000000000000 ]
      - [  0.00000000000000,  0.00000000000000 ]
      - [ -0.00000006190800,  0.00000478269841 ]
    - # atom 3
      - [ -0.49985434688242,  0.01207702409548 ]
      - [  0.00021957265532,  0.00000322815064 ]
      - [  0.00000001268544, -0.00000490425122 ]
    - # atom 4
      - [  0.49999357179061, -0.00246709045656 ]
      - [ -0.00026593700054,  0.00000126211216 ]
      - [ -0.00000004248545,  0.00000582940499 ]
    - # atom 5
      - [  0.49985434688242, -0.01207702409548 ]
      - [ -0.00021957265532, -0.00000322815064 ]
      - [  0.00000001268544, -0.00000490425122 ]
    - # atom 6
      - [ -0.49999357179061,  0.00246709045656 ]
      - [  0.00026593700054, -0.00000126211216 ]
      - [ -0.00000004248545,  0.00000582940499 ]
  - # 8
    frequency:    3.3004218337
    eigenvector:
    - # atom 1
      - [  0.00000000000000,  0.00000000000000 ]
      - [ -0.00000000000000,  0.00000000000000 ]
      - [  0.00000388856971, -0.00911600936675 ]
    - # atom 2
      - [ -0.00000000000000,  0.00000000000000 ]
      - [  0.00000000000000, -0.00000000000000 ]
      - [ -0.00014950193623,  0.00911478769280 ]
    - # atom 3
      - [  0.00027091968938, -0.00000561003005 ]
      - [  0.49975431231662,  0.00904926772569 ]
      - [  0.00006676832646, -0.01103741042227 ]
    - # atom 4
      - [ -0.00021471753093,  0.00000032450968 ]
      - [ -0.49983642399259,  0.00063890868837 ]
      - [ -0.00011896136847,  0.01103697764476 ]
    - # atom 5
      - [ -0.00027091968938,  0.00000561003005 ]
      - [ -0.49975431231662, -0.00904926772569 ]
      - [  0.00006676832646, -0.01103741042227 ]
    - # atom 6
      - [  0.00021471753093, -0.00000032450968 ]
      - [  0.49983642399259, -0.00063890868837 ]
      - [ -0.00011896136847,  0.01103697764476 ]
  - # 9
    frequency:    3.3165004051
    eigenvector:
    - # atom 1
      - [ -0.00000000000000,  0.00000000000000 ]
      - [  0.00000000000000,  0.00000000000000 ]
      - [ -0.00000003604198,  0.00000472093982 ]
    - # atom 2
      - [ -0.00000000000000, -0.00000000000000 ]
      - [  0.00000000000000,  0.00000000000000 ]
      - [ -0.00000008986597,  0.00000370869251 ]
    - # atom 3
      - [  0.49995868603125, -0.00639897027756 ]
      - [ -0.00031456975993, -0.00000806478766 ]
      - [ -0.00000008758557,  0.00000631474600 ]
    - # atom 4
      - [  0.49998988301452,  0.00321192074212 ]
      - [ -0.00025842623351, -0.00000159967797 ]
      - [ -0.00000009073595,  0.00000507888801 ]
    - # atom 5
      - [ -0.49995868603125,  0.00639897027756 ]
      - [  0.00031456975993,  0.00000806478766 ]
      - [ -0.00000008758557,  0.00000631474600 ]
    - # atom 6
      - [ -0.49998988301452, -0.00321192074212 ]
      - [  0.00025842623351,  0.00000159967797 ]
      - [ -0.00000009073595,  0.00000507888801 ]
  - # 10
    frequency:    3.3180820719
    eigenvector:
    - # atom 1
      - [  0.00000000000000,  0.00000000000000 ]
      - [ -0.00000000000000,  0.00000000000000 ]
      - [ -0.00019909646203, -0.00733703151866 ]
    - # atom 2
      - [  0.00000000000000,  0.00000000000000 ]
      - [ -0.00000000000000,  0.00000000000000 ]
      - [ -0.00007684798136, -0.00733931391561 ]
    - # atom 3
      - [  0.00026314936676, -0.00001251001401 ]
      - [  0.49985391678440, -0.00455280762315 ]
      - [ -0.00020676288591, -0.00992805485327 ]
    - # atom 4
      - [  0.00030967800770, -0.00000876514862 ]
      - [  0.49967118670163, -0.01424023816421 ]
      - [ -0.00016658518516, -0.00992879179649 ]
    - # atom 5
      - [ -0.00026314936676,  0.00001251001401 ]