108  
3    

1    
  0.0034080947349168  -0.0000000000205311   0.0094013238577252
  -0.0391391590   -0.0000672603   -0.1263319999
   0.0041787489   -0.0015930613   -0.0090211499
   0.0039518466    0.0015291839   -0.0089353416
   0.0003106897   -0.0036038766   -0.0089350985
   0.0003238621    0.0038571544   -0.0090220785
  -0.0007349121    0.0000135625   -0.0008029761
   0.0003922785   -0.0006447309   -0.0089776563
  -0.0007346640    0.0000209156   -0.0008030282
   0.0002347385    0.0005671865   -0.0089787813
  -0.0000339306    0.0000163265    0.0000001043
  -0.0000339412    0.0000172642   -0.0000000643
  -0.0000336912    0.0000143888    0.0000003399
  -0.0000318350    0.0000133538    0.0000001648
  -0.0000310659    0.0000198539    0.0000000242
  -0.0000332818    0.0000169981    0.0000000969
  -0.0000338015    0.0000111684   -0.0000001434
  -0.0000331668    0.0000187107    0.0000003707
  -0.0000367661    0.0000159420    0.0000004647
  -0.0000622083    0.0000415902   -0.0001951258
   0.0001241502    0.0000331130   -0.0001266968
   0.0000433356   -0.0000170041   -0.0000283825
   0.0000428088   -0.0000111773   -0.0000285024
   0.0000181516    0.0000065937   -0.0000436271
   0.0000389521   -0.0000142538   -0.0000295136
   0.0000399264   -0.0001272732   -0.0001609931
   0.0000461615   -0.0000375283   -0.0000368742
   0.0000114336   -0.0000240623   -0.0000495100
   0.0001256632   -0.0000677030   -0.0001258461
  -0.0000623128   -0.0000732175   -0.0001930678
   0.0000416350   -0.0000134955   -0.0000284077
   0.0000406390   -0.0000121137   -0.0000288815
   0.0000209191   -0.0000327530   -0.0000424287
   0.0000379692   -0.0000139176   -0.0000280123
   0.0000401740    0.0000888386   -0.0001593158
   0.0000131022   -0.0000154313   -0.0000489529
   0.0000462340   -0.0000030368   -0.0000358829
  -0.0116617437    0.0079015773    0.3356421292
   0.0244654194    0.0129540563    0.3588027954
   0.0003694789   -0.0000487064    0.3182677925
  -0.0000149838   -0.0002271947    0.3182863891
   0.0003900429    0.0003559081    0.3187702596
  -0.0000896021    0.0002564271    0.3182446659
   0.0020279079   -0.0208454058    0.3471713066
   0.0005414985   -0.0000977351    0.3183800876
  -0.0000903463   -0.0002859003    0.3191592991
   0.0000181647   -0.0000081602    0.3179269433
   0.0000177506   -0.0000070555    0.3179247081
   0.0000149920   -0.0000081522    0.3179284930
   0.0000174351   -0.0000044066    0.3179275095
   0.0000184636   -0.0000070291    0.3179271519
   0.0000137952   -0.0000077839    0.3179259002
   0.0000180695   -0.0000093873    0.3179267347
   0.0000166814   -0.0000090051    0.3179252446
   0.0000155044   -0.0000105530    0.3179245293
  -0.0000219365    0.0000089396    0.3179781139
  -0.0001077676    0.0000121470    0.3180305958
   0.0001058289    0.0000471601    0.3181118667
   0.0000097026   -0.0001221803    0.3181200027
  -0.0000591021   -0.0000692718    0.3180201948
  -0.0000055631    0.0000078911    0.3179015517
  -0.0000909797    0.0000908624    0.3180779815
  -0.0000045534    0.0000104694    0.3179526925
   0.0000519831    0.0000903217    0.3180607557
  -0.0000168628    0.0000079942    0.3179862499
  -0.0000018869    0.0000056999    0.3179560602
  -0.0000323597    0.0000035334    0.3179525435
  -0.0000211274    0.0000214473    0.3179539740
  -0.0000099281    0.0000234389    0.3179530203
  -0.0000182039    0.0000076990    0.3179456294
  -0.0000072395   -0.0000042095    0.3179520965
  -0.0000149163    0.0000096948    0.3179369271
  -0.0000284711   -0.0000042179    0.3179528415
   0.0235633887   -0.0124090686   -0.2782091498
  -0.0114651900   -0.0078188730   -0.3004115820
   0.0003342576    0.0000074637   -0.3175708950
  -0.0000724814   -0.0002395114   -0.3175901175
   0.0004053927   -0.0003232302   -0.3170907497
  -0.0000493288    0.0002128803   -0.3175464571
   0.0020753813    0.0202323645   -0.2892631888
  -0.0000582171    0.0002575843   -0.3166891932
   0.0004854540    0.0000377618   -0.3174917102
   0.0000188223   -0.0000080799   -0.3179290891
   0.0000172728   -0.0000074675   -0.3179264069
   0.0000151034   -0.0000086625   -0.3179289103
   0.0000175789   -0.0000044337   -0.3179276884
   0.0000185367   -0.0000071252   -0.3179276288
   0.0000135465   -0.0000079220   -0.3179268241
   0.0000183025   -0.0000087648   -0.3179287612
   0.0000164866   -0.0000090891   -0.3179253936
   0.0000156249   -0.0000109440   -0.3179255426
  -0.0000166840    0.0000082039   -0.3178669810
  -0.0000332639    0.0000108841   -0.3179021776
  -0.0000015947    0.0000097278   -0.3178961575
  -0.0000090260   -0.0000079130   -0.3178983629
  -0.0000203398   -0.0000060718   -0.3178993464
  -0.0000201098    0.0000081452   -0.3179097474
  -0.0000259174    0.0000210982   -0.3178964555
  -0.0000152429    0.0000099915   -0.3179101944
  -0.0000078658    0.0000199151   -0.3178978264
  -0.0000240744    0.0000081907   -0.3178609312
   0.0001082413   -0.0000327859   -0.3177441061
  -0.0001083894    0.0000034931   -0.3178264499
  -0.0000609664    0.0000854177   -0.3178369403
   0.0000102871    0.0001402632   -0.3177316487
  -0.0000040927    0.0000077017   -0.3179593980
   0.0000531772   -0.0000755668   -0.3177928030
  -0.0000039673    0.0000097321   -0.3178977072
  -0.0000942928   -0.0000745834   -0.3177744448

37   
  0.0034080947349168  -0.0000000000205311   0.0094013238577252
  -0.0247627124    0.0154798105    0.0223906934
   0.0002970125   -0.0000564808    0.0003469707
   0.0366942957    0.0200239867    0.0348769054
   0.0020300483   -0.0354920328    0.0286651831
   0.0012533723    0.0005433543    0.0007385397
  -0.0009116095    0.0007439126    0.0009439653
  -0.0000446124   -0.0001866076    0.0003601220
  -0.0001706817    0.0002871531    0.0003410419
   0.0003421148   -0.0012306293    0.0008411799
  -0.0000338901    0.0000174202   -0.0000012126
  -0.0000334857    0.0000171311   -0.0000001993
  -0.0000328269    0.0000151873   -0.0000009630
  -0.0000316059    0.0000134251   -0.0000010114
  -0.0000314469    0.0000197310   -0.0000001583
  -0.0000333217    0.0000166187   -0.0000003567
  -0.0000342453    0.0000106509   -0.0000008456
  -0.0000331771    0.0000179248   -0.0000001471
  -0.0000374421    0.0000160834   -0.0000002831
   0.0000351294   -0.0000169766    0.0000589604
   0.0000245081   -0.0000159836    0.0000212208
   0.0000426340   -0.0000172588    0.0000316575
   0.0000399213   -0.0000186615    0.0000289546
   0.0000299931   -0.0000216786    0.0000241124
   0.0000293996   -0.0000152763    0.0000157915
   0.0000310849   -0.0000112699    0.0000232588
   0.0000316088   -0.0000211817    0.0000129770
   0.0000359883   -0.0000120320    0.0000291839
   0.0000276038   -0.0000181430    0.0000729759
   0.0001615702    0.0000943363    0.0001863838
  -0.0000601598    0.0000712343    0.0001074680
  -0.0001147471    0.0000407893    0.0001343265
   0.0001661814    0.0000304419    0.0001595821
   0.0000420283   -0.0000145681   -0.0000269711
   0.0000031955   -0.0001940718    0.0001734020
   0.0000459645   -0.0000202317    0.0000286332
   0.0000577312   -0.0001353162    0.0001201108
  -0.0218588077    0.0000308042    0.2059025168
   0.0016919939   -0.0008302201    0.3159689009
   0.0053410963   -0.0021178182    0.3146663904
   0.0025672591   -0.0020185595    0.3154442906
  -0.0018106560    0.0002984943    0.3151828051
   0.0000312726   -0.0000078614    0.3175725639
   0.0007397832   -0.0001491224    0.3160991073
   0.0000293469   -0.0000093599    0.3175775409
   0.0000322337    0.0047709239    0.3145313561
   0.0000183994   -0.0000080862    0.3179281652
   0.0000174551   -0.0000073586    0.3179256022
   0.0000148816   -0.0000085643    0.3179292381
   0.0000173575   -0.0000046199    0.3179284930
   0.0000186471   -0.0000068807    0.3179276586
   0.0000136649   -0.0000076651    0.3179270029
   0.0000183982   -0.0000093130    0.3179280758
   0.0000167252   -0.0000089547    0.3179259598
   0.0000156505   -0.0000107303    0.3179252744
  -0.0000326141    0.0000199161    0.3178604543
  -0.0000184856    0.0000084677    0.3178897798
  -0.0000108811    0.0000106841    0.3178307116
  -0.0000155941   -0.0000064184    0.3178455234
   0.0000128030    0.0000254159    0.3178841174
  -0.0000449556    0.0000236006    0.3178930283
  -0.0000153514    0.0000089685    0.3178932369
  -0.0000156382    0.0000091062    0.3178851306
  -0.0000180993   -0.0000230585    0.3178888261
  -0.0000675639    0.0000382815    0.3178504407
  -0.0000198791    0.0000227090    0.3178918660
   0.0000233538    0.0000292279    0.3178440928
  -0.0000150273   -0.0000456844    0.3178491890
  -0.0000064119    0.0000142260    0.3178773522
  -0.0000249363    0.0000118241    0.3179019988
  -0.0000297388    0.0000014132    0.3178894520
  -0.0000024000    0.0000016470    0.3178898096
  -0.0000183751   -0.0000009402    0.3178901374
  -0.0015739260   -0.0000076496   -0.2924090028
   0.0002572230   -0.0015863799   -0.3160503209
   0.0016300495   -0.0028132985   -0.3155972660
   0.0018053916    0.0003096397   -0.3163809180
  -0.0026794476    0.0006772024   -0.3152627051
  -0.0000543409   -0.0000083274   -0.3182131648
   0.0011169257    0.0002688347   -0.3166132569
  -0.0000556809   -0.0000092206   -0.3182205856
  -0.0019921958    0.0030892841   -0.3150369227
   0.0000186676   -0.0000081323   -0.3179137409
   0.0000180592   -0.0000066113   -0.3179211617
   0.0000142778   -0.0000080027   -0.3179256022
   0.0000166901   -0.0000039661   -0.3179245591
   0.0000196853   -0.0000064550   -0.3179237247
   0.0000132896   -0.0000078854   -0.3179242611
   0.0000179027   -0.0000099505   -0.3179235160
   0.0000167511   -0.0000091412   -0.3179230988
   0.0000156941   -0.0000116177   -0.3179219961
  -0.0000149057    0.0000073870   -0.3179413974
  -0.0000165582    0.0000082366   -0.3179257512
  -0.0000203016    0.0000055111   -0.3179429770
  -0.0000149204    0.0000098983   -0.3179440200
  -0.0000151971    0.0000095593   -0.3179280460
  -0.0000195706    0.0000078360   -0.3179322779
  -0.0000153269    0.0000082631   -0.3179222047
  -0.0000151345    0.0000100421   -0.3179244697
  -0.0000196464    0.0000070257   -0.3179320693
   0.0000840605   -0.0000878836   -0.3174916804
  -0.0000149080    0.0000380811   -0.3179739118
  -0.0000593294    0.0000190233   -0.3175497055
  -0.0000808625    0.0000903091   -0.3175228238
   0.0001355861    0.0001020471   -0.3178830147
  -0.0001095193    0.0000550929   -0.3179751933
  -0.0000424864   -0.0000084731   -0.3179820776
   0.0000116721   -0.0000037009   -0.3179625869
  -0.0000284170   -0.0001320254   -0.3179301620

37   
 -0.0034080947349168   0.0000000000205311  -0.0094013238577252
   0.0253858939   -0.0158233736   -0.0226126462
  -0.0003747931    0.0000763826   -0.0003504716
  -0.0382871963   -0.0209189318   -0.0359291956
  -0.0020380975    0.0367498547   -0.0292355660
  -0.0013392044   -0.0005154440   -0.0007279180
   0.0008671820   -0.0007213011   -0.0009480221
  -0.0000151502    0.0002177184   -0.0003549382
   0.0000906947   -0.0002500402   -0.0003391579
  -0.0004169954    0.0012929031   -0.0008382248
  -0.0000333625    0.0000165973    0.0000010822
  -0.0000340524    0.0000174454    0.0000002151
  -0.0000330124    0.0000150631    0.0000010813
  -0.0000315467    0.0000135137    0.0000004359
  -0.0000310008    0.0000195346    0.0000004135
  -0.0000336087    0.0000167485    0.0000001201
  -0.0000343099    0.0000112654   -0.0000002123
  -0.0000335074    0.0000188007   -0.0000000130
  -0.0000367991    0.0000157963    0.0000003623
   0.0000338306   -0.0000166459   -0.0000585312
   0.0000439312   -0.0000157948   -0.0000201678
   0.0000237146   -0.0000150728   -0.0000315985
   0.0000280117   -0.0000014127   -0.0000277034
   0.0000383853   -0.0000039336   -0.0000250938
   0.0000327788   -0.0000163403   -0.0000163289
   0.0000401355   -0.0000299793   -0.0000228314
   0.0000313192   -0.0000203281   -0.0000129809
   0.0000271655   -0.0000299649   -0.0000303742
   0.0000395672   -0.0000172485   -0.0000464137
  -0.0000881089   -0.0001205523   -0.0001811128
   0.0001231535   -0.0000979432   -0.0001030799
   0.0001772519   -0.0000582096   -0.0001298010
  -0.0000907994   -0.0000534368   -0.0001545842
   0.0000155820   -0.0000146100    0.0000266787
   0.0000670264    0.0001480595   -0.0001685359
   0.0000235170   -0.0000200008   -0.0000269795
   0.0000047463    0.0000897532   -0.0001164163
   0.0226507373    0.0000345091    0.4324165583
  -0.0016178655    0.0008126441    0.3198565841
  -0.0053727580    0.0021281920    0.3212374151
  -0.0025604984    0.0020431392    0.3204189837
   0.0018643431   -0.0002950212    0.3206651509
   0.0000023880   -0.0000078671    0.3182707727
  -0.0006857531    0.0001025351    0.3197321892
  -0.0000002882   -0.0000089363    0.3182754815
   0.0000053251   -0.0048375442    0.3213559985
   0.0000181660   -0.0000083161    0.3179278374
   0.0000174786   -0.0000075104    0.3179250658
   0.0000151272   -0.0000083001    0.3179280162
   0.0000173720   -0.0000045939    0.3179275990
   0.0000182122   -0.0000071105    0.3179265857
   0.0000137343   -0.0000076246    0.3179266155
   0.0000184982   -0.0000089664    0.3179270029
   0.0000165107   -0.0000092583    0.3179250360
   0.0000156541   -0.0000105772    0.3179245591
   0.0000006875   -0.0000007385    0.3179897964
  -0.0000147994    0.0000083311    0.3179582953
  -0.0000233877    0.0000044709    0.3180249333
  -0.0000173506    0.0000200012    0.3180072010
  -0.0000444002   -0.0000083218    0.3179644644
   0.0000074222   -0.0000069146    0.3179602325
  -0.0000156530    0.0000072388    0.3179520071
  -0.0000158471    0.0000115829    0.3179631531
  -0.0000166402    0.0000407638    0.3179628253
   0.0000326300   -0.0000208151    0.3180046976
  -0.0000157808   -0.0000066024    0.3179610074
  -0.0000561866   -0.0000157679    0.3180144131
  -0.0000172712    0.0000586384    0.3180101216
  -0.0000261605    0.0000026186    0.3179720938
  -0.0000087403    0.0000033471    0.3179567456
  -0.0000040837    0.0000132574    0.3179590702
  -0.0000279886    0.0000184096    0.3179591000
  -0.0000175858    0.0000194215    0.3179651797
   0.0016629481   -0.0000078467   -0.3438818753
  -0.0002275987    0.0015479218   -0.3197974265
  -0.0016228243    0.0027847057   -0.3203472197
  -0.0017523298   -0.0002990893   -0.3195086122
   0.0027094167   -0.0006821255   -0.3206306398
   0.0000880205   -0.0000084787   -0.3176319599
  -0.0010568592   -0.0002732575   -0.3192387521
   0.0000860207   -0.0000090447   -0.3176386058
   0.0020118239   -0.0031322062   -0.3209064901
   0.0000185913   -0.0000082934   -0.3179419041
   0.0000166527   -0.0000075314   -0.3179294765
   0.0000160576   -0.0000089623   -0.3179320991
   0.0000184813   -0.0000050968   -0.3179311156
   0.0000173494   -0.0000075934   -0.3179303706
   0.0000136102   -0.0000081681   -0.3179294765
   0.0000185395   -0.0000081180   -0.3179314435
   0.0000166555   -0.0000091180   -0.3179285228
   0.0000152286   -0.0000099681   -0.3179284632
  -0.0000187494    0.0000086492   -0.3179098368
  -0.0000185707    0.0000078844   -0.3179236352
  -0.0000144863    0.0000092633   -0.3179083467
  -0.0000157213    0.0000042869   -0.3179102838
  -0.0000160138    0.0000073409   -0.3179177940
  -0.0000175145    0.0000079933   -0.3179195523
  -0.0000165221    0.0000087802   -0.3179208338
  -0.0000164966    0.0000096101   -0.3179219961
  -0.0000163205    0.0000094739   -0.3179203272
  -0.0001186427    0.0001034546   -0.3183649182
  -0.0000204792   -0.0000209270   -0.3178817332
   0.0000303501   -0.0000034061   -0.3183167279
   0.0000467509   -0.0000787029   -0.3183419108
  -0.0001699082   -0.0000866812   -0.3179750443
   0.0000766388   -0.0000402537   -0.3178880811
   0.0000070744    0.0000226708   -0.3178701699
  -0.0000409901    0.0000235132   -0.3178884387
  -0.0000080804    0.0001521378   -0.3179322183
