phonopy:
  version: 2.15.1
  frequency_unit_conversion_factor: 15.633302
  symmetry_tolerance: 1.00000e-05
  configuration:
    dim: "3 3 2"
    band: "0.0000 0.0000 0.0000  0.0000 0.5000 0.0000 0.5000 0.5000 0.0000 0.0000 0.0000 0.0000"
    band_points: "51"
    band_labels: "Γ X M Γ"
    band_connection: "TRUE"
    eigenvectors: ".true."

physical_unit:
  atomic_mass: "AMU"
  length: "angstrom"
  force_constants: "eV/angstrom^2"

space_group:
  type: "P6_3/mmc"
  number: 194
  Hall_symbol: "-P 6c 2c"

supercell_matrix:
- [   3,   0,   0 ]
- [   0,   3,   0 ]
- [   0,   0,   2 ]

primitive_cell:
  lattice:
  - [     3.319932129999999,    -0.000000020000000,     0.000000000000000 ] # a
  - [    -1.659967610000000,     2.875146500000000,     0.000000000000000 ] # b
  - [     0.000000000000000,     0.000000000000000,    13.737187300000000 ] # c
  points:
  - symbol: W  # 1
    coordinates: [  0.666667000000000,  0.333333000000000,  0.750000000000000 ]
    mass: 183.840000
  - symbol: W  # 2
    coordinates: [  0.333333000000000,  0.666667000000000,  0.250000000000000 ]
    mass: 183.840000
  - symbol: Se # 3
    coordinates: [  0.333333000000000,  0.666667000000000,  0.871000790000000 ]
    mass: 78.960000
  - symbol: Se # 4
    coordinates: [  0.666667000000000,  0.333333000000000,  0.371000790000000 ]
    mass: 78.960000
  - symbol: Se # 5
    coordinates: [  0.333333000000000,  0.666667000000000,  0.628999210000000 ]
    mass: 78.960000
  - symbol: Se # 6
    coordinates: [  0.666667000000000,  0.333333000000000,  0.128999210000000 ]
    mass: 78.960000
  reciprocal_lattice: # without 2pi
  - [     0.301210977911795,     0.173904344390800,     0.000000000000000 ] # a*
  - [     0.000000002095274,     0.347808365061776,     0.000000000000000 ] # b*
  - [     0.000000000000000,     0.000000000000000,     0.072795105589046 ] # c*

unit_cell:
  lattice:
  - [     3.319932129999999,    -0.000000020000000,     0.000000000000000 ] # a
  - [    -1.659967610000000,     2.875146500000000,    -0.000000000000000 ] # b
  - [     0.000000000000000,    -0.000000000000000,    13.737187300000000 ] # c
  points:
  - symbol: W  # 1
    coordinates: [  0.666667000000000,  0.333333000000000,  0.750000000000000 ]
    mass: 183.840000
    reduced_to: 1
  - symbol: W  # 2
    coordinates: [  0.333333000000000,  0.666667000000000,  0.250000000000000 ]
    mass: 183.840000
    reduced_to: 2
  - symbol: Se # 3
    coordinates: [  0.333333000000000,  0.666667000000000,  0.871000790000000 ]
    mass: 78.960000
    reduced_to: 3
  - symbol: Se # 4
    coordinates: [  0.666667000000000,  0.333333000000000,  0.371000790000000 ]
    mass: 78.960000
    reduced_to: 4
  - symbol: Se # 5
    coordinates: [  0.333333000000000,  0.666667000000000,  0.628999210000000 ]
    mass: 78.960000
    reduced_to: 5
  - symbol: Se # 6
    coordinates: [  0.666667000000000,  0.333333000000000,  0.128999210000000 ]
    mass: 78.960000
    reduced_to: 6

supercell:
  lattice:
  - [     9.959796389999998,    -0.000000060000000,     0.000000000000000 ] # a
  - [    -4.979902830000000,     8.625439500000001,     0.000000000000000 ] # b
  - [     0.000000000000000,     0.000000000000000,    27.474374600000001 ] # c
  points:
  - symbol: W  # 1
    coordinates: [  0.222222333333333,  0.111111000000000,  0.375000000000000 ]
    mass: 183.840000
    reduced_to: 1
  - symbol: W  # 2
    coordinates: [  0.555555666666667,  0.111111000000000,  0.375000000000000 ]
    mass: 183.840000
    reduced_to: 1
  - symbol: W  # 3
    coordinates: [  0.888889000000000,  0.111111000000000,  0.375000000000000 ]
    mass: 183.840000
    reduced_to: 1
  - symbol: W  # 4
    coordinates: [  0.222222333333333,  0.444444333333333,  0.375000000000000 ]
    mass: 183.840000
    reduced_to: 1
  - symbol: W  # 5
    coordinates: [  0.555555666666667,  0.444444333333333,  0.375000000000000 ]
    mass: 183.840000
    reduced_to: 1
  - symbol: W  # 6
    coordinates: [  0.888889000000000,  0.444444333333333,  0.375000000000000 ]
    mass: 183.840000
    reduced_to: 1
  - symbol: W  # 7
    coordinates: [  0.222222333333333,  0.777777666666667,  0.375000000000000 ]
    mass: 183.840000
    reduced_to: 1
  - symbol: W  # 8
    coordinates: [  0.555555666666667,  0.777777666666667,  0.375000000000000 ]
    mass: 183.840000
    reduced_to: 1
  - symbol: W  # 9
    coordinates: [  0.888889000000000,  0.777777666666667,  0.375000000000000 ]
    mass: 183.840000
    reduced_to: 1
  - symbol: W  # 10
    coordinates: [  0.222222333333333,  0.111111000000000,  0.875000000000000 ]
    mass: 183.840000
    reduced_to: 1
  - symbol: W  # 11
    coordinates: [  0.555555666666667,  0.111111000000000,  0.875000000000000 ]
    mass: 183.840000
    reduced_to: 1
  - symbol: W  # 12
    coordinates: [  0.888889000000000,  0.111111000000000,  0.875000000000000 ]
    mass: 183.840000
    reduced_to: 1
  - symbol: W  # 13
    coordinates: [  0.222222333333333,  0.444444333333333,  0.875000000000000 ]
    mass: 183.840000
    reduced_to: 1
  - symbol: W  # 14
    coordinates: [  0.555555666666667,  0.444444333333333,  0.875000000000000 ]
    mass: 183.840000
    reduced_to: 1
  - symbol: W  # 15
    coordinates: [  0.888889000000000,  0.444444333333333,  0.875000000000000 ]
    mass: 183.840000
    reduced_to: 1
  - symbol: W  # 16
    coordinates: [  0.222222333333333,  0.777777666666667,  0.875000000000000 ]
    mass: 183.840000
    reduced_to: 1
  - symbol: W  # 17
    coordinates: [  0.555555666666667,  0.777777666666667,  0.875000000000000 ]
    mass: 183.840000
    reduced_to: 1
  - symbol: W  # 18
    coordinates: [  0.888889000000000,  0.777777666666667,  0.875000000000000 ]
    mass: 183.840000
    reduced_to: 1
  - symbol: W  # 19
    coordinates: [  0.111111000000000,  0.222222333333333,  0.125000000000000 ]
    mass: 183.840000
    reduced_to: 19
  - symbol: W  # 20
    coordinates: [  0.444444333333333,  0.222222333333333,  0.125000000000000 ]
    mass: 183.840000
    reduced_to: 19
  - symbol: W  # 21
    coordinates: [  0.777777666666667,  0.222222333333333,  0.125000000000000 ]
    mass: 183.840000
    reduced_to: 19
  - symbol: W  # 22
    coordinates: [  0.111111000000000,  0.555555666666667,  0.125000000000000 ]
    mass: 183.840000
    reduced_to: 19
  - symbol: W  # 23
    coordinates: [  0.444444333333333,  0.555555666666667,  0.125000000000000 ]
    mass: 183.840000
    reduced_to: 19
  - symbol: W  # 24
    coordinates: [  0.777777666666667,  0.555555666666667,  0.125000000000000 ]
    mass: 183.840000
    reduced_to: 19
  - symbol: W  # 25
    coordinates: [  0.111111000000000,  0.888889000000000,  0.125000000000000 ]
    mass: 183.840000
    reduced_to: 19
  - symbol: W  # 26
    coordinates: [  0.444444333333333,  0.888889000000000,  0.125000000000000 ]
    mass: 183.840000
    reduced_to: 19
  - symbol: W  # 27
    coordinates: [  0.777777666666667,  0.888889000000000,  0.125000000000000 ]
    mass: 183.840000
    reduced_to: 19
  - symbol: W  # 28
    coordinates: [  0.111111000000000,  0.222222333333333,  0.625000000000000 ]
    mass: 183.840000
    reduced_to: 19
  - symbol: W  # 29
    coordinates: [  0.444444333333333,  0.222222333333333,  0.625000000000000 ]
    mass: 183.840000
    reduced_to: 19
  - symbol: W  # 30
    coordinates: [  0.777777666666667,  0.222222333333333,  0.625000000000000 ]
    mass: 183.840000
    reduced_to: 19
  - symbol: W  # 31
    coordinates: [  0.111111000000000,  0.555555666666667,  0.625000000000000 ]
    mass: 183.840000
    reduced_to: 19
  - symbol: W  # 32
    coordinates: [  0.444444333333333,  0.555555666666667,  0.625000000000000 ]
    mass: 183.840000
    reduced_to: 19
  - symbol: W  # 33
    coordinates: [  0.777777666666667,  0.555555666666667,  0.625000000000000 ]
    mass: 183.840000
    reduced_to: 19
  - symbol: W  # 34
    coordinates: [  0.111111000000000,  0.888889000000000,  0.625000000000000 ]
    mass: 183.840000
    reduced_to: 19
  - symbol: W  # 35
    coordinates: [  0.444444333333333,  0.888889000000000,  0.625000000000000 ]
    mass: 183.840000
    reduced_to: 19
  - symbol: W  # 36
    coordinates: [  0.777777666666667,  0.888889000000000,  0.625000000000000 ]
    mass: 183.840000
    reduced_to: 19
  - symbol: Se # 37
    coordinates: [  0.111111000000000,  0.222222333333333,  0.435500395000000 ]
    mass: 78.960000
    reduced_to: 37
  - symbol: Se # 38
    coordinates: [  0.444444333333333,  0.222222333333333,  0.435500395000000 ]
    mass: 78.960000
    reduced_to: 37
  - symbol: Se # 39
    coordinates: [  0.777777666666667,  0.222222333333333,  0.435500395000000 ]
    mass: 78.960000
    reduced_to: 37
  - symbol: Se # 40
    coordinates: [  0.111111000000000,  0.555555666666667,  0.435500395000000 ]
    mass: 78.960000
    reduced_to: 37
  - symbol: Se # 41
    coordinates: [  0.444444333333333,  0.555555666666667,  0.435500395000000 ]
    mass: 78.960000
    reduced_to: 37
  - symbol: Se # 42
    coordinates: [  0.777777666666667,  0.555555666666667,  0.435500395000000 ]
    mass: 78.960000
    reduced_to: 37
  - symbol: Se # 43
    coordinates: [  0.111111000000000,  0.888889000000000,  0.435500395000000 ]
    mass: 78.960000
    reduced_to: 37
  - symbol: Se # 44
    coordinates: [  0.444444333333333,  0.888889000000000,  0.435500395000000 ]
    mass: 78.960000
    reduced_to: 37
  - symbol: Se # 45
    coordinates: [  0.777777666666667,  0.888889000000000,  0.435500395000000 ]
    mass: 78.960000
    reduced_to: 37
  - symbol: Se # 46
    coordinates: [  0.111111000000000,  0.222222333333333,  0.935500395000000 ]
    mass: 78.960000
    reduced_to: 37
  - symbol: Se # 47
    coordinates: [  0.444444333333333,  0.222222333333333,  0.935500395000000 ]
    mass: 78.960000
    reduced_to: 37
  - symbol: Se # 48
    coordinates: [  0.777777666666667,  0.222222333333333,  0.935500395000000 ]
    mass: 78.960000
    reduced_to: 37
  - symbol: Se # 49
    coordinates: [  0.111111000000000,  0.555555666666667,  0.935500395000000 ]
    mass: 78.960000
    reduced_to: 37
  - symbol: Se # 50
    coordinates: [  0.444444333333333,  0.555555666666667,  0.935500395000000 ]
    mass: 78.960000
    reduced_to: 37
  - symbol: Se # 51
    coordinates: [  0.777777666666667,  0.555555666666667,  0.935500395000000 ]
    mass: 78.960000
    reduced_to: 37
  - symbol: Se # 52
    coordinates: [  0.111111000000000,  0.888889000000000,  0.935500395000000 ]
    mass: 78.960000
    reduced_to: 37
  - symbol: Se # 53
    coordinates: [  0.444444333333333,  0.888889000000000,  0.935500395000000 ]
    mass: 78.960000
    reduced_to: 37
  - symbol: Se # 54
    coordinates: [  0.777777666666667,  0.888889000000000,  0.935500395000000 ]
    mass: 78.960000
    reduced_to: 37
  - symbol: Se # 55
    coordinates: [  0.222222333333333,  0.111111000000000,  0.185500395000000 ]
    mass: 78.960000
    reduced_to: 55
  - symbol: Se # 56
    coordinates: [  0.555555666666667,  0.111111000000000,  0.185500395000000 ]
    mass: 78.960000
    reduced_to: 55
  - symbol: Se # 57
    coordinates: [  0.888889000000000,  0.111111000000000,  0.185500395000000 ]
    mass: 78.960000
    reduced_to: 55
  - symbol: Se # 58
    coordinates: [  0.222222333333333,  0.444444333333333,  0.185500395000000 ]
    mass: 78.960000
    reduced_to: 55
  - symbol: Se # 59
    coordinates: [  0.555555666666667,  0.444444333333333,  0.185500395000000 ]
    mass: 78.960000
    reduced_to: 55
  - symbol: Se # 60
    coordinates: [  0.888889000000000,  0.444444333333333,  0.185500395000000 ]
    mass: 78.960000
    reduced_to: 55
  - symbol: Se # 61
    coordinates: [  0.222222333333333,  0.777777666666667,  0.185500395000000 ]
    mass: 78.960000
    reduced_to: 55
  - symbol: Se # 62
    coordinates: [  0.555555666666667,  0.777777666666667,  0.185500395000000 ]
    mass: 78.960000
    reduced_to: 55
  - symbol: Se # 63
    coordinates: [  0.888889000000000,  0.777777666666667,  0.185500395000000 ]
    mass: 78.960000
    reduced_to: 55
  - symbol: Se # 64
    coordinates: [  0.222222333333333,  0.111111000000000,  0.685500395000000 ]
    mass: 78.960000
    reduced_to: 55
  - symbol: Se # 65
    coordinates: [  0.555555666666667,  0.111111000000000,  0.685500395000000 ]
    mass: 78.960000
    reduced_to: 55
  - symbol: Se # 66
    coordinates: [  0.888889000000000,  0.111111000000000,  0.685500395000000 ]
    mass: 78.960000
    reduced_to: 55
  - symbol: Se # 67
    coordinates: [  0.222222333333333,  0.444444333333333,  0.685500395000000 ]
    mass: 78.960000
    reduced_to: 55
  - symbol: Se # 68
    coordinates: [  0.555555666666667,  0.444444333333333,  0.685500395000000 ]
    mass: 78.960000
    reduced_to: 55
  - symbol: Se # 69
    coordinates: [  0.888889000000000,  0.444444333333333,  0.685500395000000 ]
    mass: 78.960000
    reduced_to: 55
  - symbol: Se # 70
    coordinates: [  0.222222333333333,  0.777777666666667,  0.685500395000000 ]
    mass: 78.960000
    reduced_to: 55
  - symbol: Se # 71
    coordinates: [  0.555555666666667,  0.777777666666667,  0.685500395000000 ]
    mass: 78.960000
    reduced_to: 55
  - symbol: Se # 72
    coordinates: [  0.888889000000000,  0.777777666666667,  0.685500395000000 ]
    mass: 78.960000
    reduced_to: 55
  - symbol: Se # 73
    coordinates: [  0.111111000000000,  0.222222333333333,  0.314499605000000 ]
    mass: 78.960000
    reduced_to: 73
  - symbol: Se # 74
    coordinates: [  0.444444333333333,  0.222222333333333,  0.314499605000000 ]
    mass: 78.960000
    reduced_to: 73
  - symbol: Se # 75
    coordinates: [  0.777777666666667,  0.222222333333333,  0.314499605000000 ]
    mass: 78.960000
    reduced_to: 73
  - symbol: Se # 76
    coordinates: [  0.111111000000000,  0.555555666666667,  0.314499605000000 ]
    mass: 78.960000
    reduced_to: 73
  - symbol: Se # 77
    coordinates: [  0.444444333333333,  0.555555666666667,  0.314499605000000 ]
    mass: 78.960000
    reduced_to: 73
  - symbol: Se # 78
    coordinates: [  0.777777666666667,  0.555555666666667,  0.314499605000000 ]
    mass: 78.960000
    reduced_to: 73
  - symbol: Se # 79
    coordinates: [  0.111111000000000,  0.888889000000000,  0.314499605000000 ]
    mass: 78.960000
    reduced_to: 73
  - symbol: Se # 80
    coordinates: [  0.444444333333333,  0.888889000000000,  0.314499605000000 ]
    mass: 78.960000
    reduced_to: 73
  - symbol: Se # 81
    coordinates: [  0.777777666666667,  0.888889000000000,  0.314499605000000 ]
    mass: 78.960000
    reduced_to: 73
  - symbol: Se # 82
    coordinates: [  0.111111000000000,  0.222222333333333,  0.814499605000000 ]
    mass: 78.960000
    reduced_to: 73
  - symbol: Se # 83
    coordinates: [  0.444444333333333,  0.222222333333333,  0.814499605000000 ]
    mass: 78.960000
    reduced_to: 73
  - symbol: Se # 84
    coordinates: [  0.777777666666667,  0.222222333333333,  0.814499605000000 ]
    mass: 78.960000
    reduced_to: 73
  - symbol: Se # 85
    coordinates: [  0.111111000000000,  0.555555666666667,  0.814499605000000 ]
    mass: 78.960000
    reduced_to: 73
  - symbol: Se # 86
    coordinates: [  0.444444333333333,  0.555555666666667,  0.814499605000000 ]
    mass: 78.960000
    reduced_to: 73
  - symbol: Se # 87
    coordinates: [  0.777777666666667,  0.555555666666667,  0.814499605000000 ]
    mass: 78.960000
    reduced_to: 73
  - symbol: Se # 88
    coordinates: [  0.111111000000000,  0.888889000000000,  0.814499605000000 ]
    mass: 78.960000
    reduced_to: 73
  - symbol: Se # 89
    coordinates: [  0.444444333333333,  0.888889000000000,  0.814499605000000 ]
    mass: 78.960000
    reduced_to: 73
  - symbol: Se # 90
    coordinates: [  0.777777666666667,  0.888889000000000,  0.814499605000000 ]
    mass: 78.960000
    reduced_to: 73
  - symbol: Se # 91
    coordinates: [  0.222222333333333,  0.111111000000000,  0.064499605000000 ]
    mass: 78.960000
    reduced_to: 91
  - symbol: Se # 92
    coordinates: [  0.555555666666667,  0.111111000000000,  0.064499605000000 ]
    mass: 78.960000
    reduced_to: 91
  - symbol: Se # 93
    coordinates: [  0.888889000000000,  0.111111000000000,  0.064499605000000 ]
    mass: 78.960000
    reduced_to: 91
  - symbol: Se # 94
    coordinates: [  0.222222333333333,  0.444444333333333,  0.064499605000000 ]
    mass: 78.960000
    reduced_to: 91
  - symbol: Se # 95
    coordinates: [  0.555555666666667,  0.444444333333333,  0.064499605000000 ]
    mass: 78.960000
    reduced_to: 91
  - symbol: Se # 96
    coordinates: [  0.888889000000000,  0.444444333333333,  0.064499605000000 ]
    mass: 78.960000
    reduced_to: 91
  - symbol: Se # 97
    coordinates: [  0.222222333333333,  0.777777666666667,  0.064499605000000 ]
    mass: 78.960000
    reduced_to: 91
  - symbol: Se # 98
    coordinates: [  0.555555666666667,  0.777777666666667,  0.064499605000000 ]
    mass: 78.960000
    reduced_to: 91
  - symbol: Se # 99
    coordinates: [  0.888889000000000,  0.777777666666667,  0.064499605000000 ]
    mass: 78.960000
    reduced_to: 91
  - symbol: Se # 100
    coordinates: [  0.222222333333333,  0.111111000000000,  0.564499605000000 ]
    mass: 78.960000
    reduced_to: 91
  - symbol: Se # 101
    coordinates: [  0.555555666666667,  0.111111000000000,  0.564499605000000 ]
    mass: 78.960000
    reduced_to: 91
  - symbol: Se # 102
    coordinates: [  0.888889000000000,  0.111111000000000,  0.564499605000000 ]
    mass: 78.960000
    reduced_to: 91
  - symbol: Se # 103
    coordinates: [  0.222222333333333,  0.444444333333333,  0.564499605000000 ]
    mass: 78.960000
    reduced_to: 91
  - symbol: Se # 104
    coordinates: [  0.555555666666667,  0.444444333333333,  0.564499605000000 ]
    mass: 78.960000
    reduced_to: 91
  - symbol: Se # 105
    coordinates: [  0.888889000000000,  0.444444333333333,  0.564499605000000 ]
    mass: 78.960000
    reduced_to: 91
  - symbol: Se # 106
    coordinates: [  0.222222333333333,  0.777777666666667,  0.564499605000000 ]
    mass: 78.960000
    reduced_to: 91
  - symbol: Se # 107
    coordinates: [  0.555555666666667,  0.777777666666667,  0.564499605000000 ]
    mass: 78.960000
    reduced_to: 91
  - symbol: Se # 108
    coordinates: [  0.888889000000000,  0.777777666666667,  0.564499605000000 ]
    mass: 78.960000
    reduced_to: 91
