972  
18   

1    
  0.0048421386305640   0.0027956100890799   0.0082908538590566
  -0.0032161321   -0.0018561532   -0.0240317322
   0.0000971862    0.0000271896    0.0001692577
   0.0000982944    0.0000285574    0.0001640092
  -0.0000623920    0.0000597489    0.0000887152
   0.0000005553    0.0000009799    0.0000056520
   0.0000699640   -0.0000205587   -0.0000142488
  -0.0000638303    0.0000600703    0.0000886668
   0.0000707874   -0.0000203538   -0.0000136173
   0.0000006932   -0.0000004690    0.0000074180
  -0.0000293101   -0.0000844266    0.0000609793
   0.0000013899   -0.0000001238    0.0000045786
   0.0000277176    0.0000737197   -0.0000127149
  -0.0000017049   -0.0000003592    0.0000070632
   0.0000008561   -0.0000000957    0.0000057002
  -0.0000007586   -0.0000005802    0.0000042198
  -0.0000132886   -0.0000051550   -0.0000075749
   0.0000024089   -0.0000012056    0.0000067065
   0.0000000340    0.0000025788    0.0000044536
  -0.0000286188   -0.0000885515    0.0000580368
   0.0000277975    0.0000748287   -0.0000124946
   0.0000006955    0.0000000040    0.0000072806
  -0.0000138671   -0.0000049975   -0.0000074338
  -0.0000003329    0.0000019021    0.0000079204
   0.0000016728   -0.0000019490    0.0000048871
  -0.0000010033    0.0000000309    0.0000029057
  -0.0000006828   -0.0000009392    0.0000027707
   0.0000010654   -0.0000001747    0.0000076042
  -0.0000003997   -0.0000005837    0.0000215841
   0.0000422923    0.0000328111   -0.0000112007
  -0.0001556277   -0.0000885139   -0.0001534136
  -0.0000052796    0.0000045231   -0.0000313143
   0.0000017276   -0.0000004722   -0.0000228415
  -0.0000017113    0.0000005408   -0.0000235770
   0.0002552592   -0.0002953117    0.0001555281
   0.0000016688    0.0000010729   -0.0000235948
  -0.0000340858    0.0003128578    0.0001141322
  -0.0000039123    0.0000043381   -0.0000295194
  -0.0000004137    0.0000013227   -0.0000231999
  -0.0000003881   -0.0000007728   -0.0000235027
   0.0000007459    0.0000008034   -0.0000238526
   0.0000002603    0.0000002475   -0.0000223350
   0.0000008789    0.0000013580   -0.0000241803
   0.0000019087   -0.0000007558   -0.0000239722
   0.0000003187    0.0000019692   -0.0000247255
  -0.0000038494    0.0000044628   -0.0000301500
  -0.0000342943    0.0003139981    0.0001147939
  -0.0000000178    0.0000018689   -0.0000226535
   0.0002536284   -0.0002937719    0.0001503078
  -0.0000001687    0.0000012852   -0.0000240705
   0.0000023484   -0.0000006980   -0.0000253941
  -0.0000049608    0.0000041006   -0.0000307451
  -0.0001543870   -0.0000889879   -0.0001583623
   0.0000436525    0.0000323942   -0.0000116890
  -0.0000006732   -0.0000004484    0.0000217012
  -0.0000743956   -0.0000783756    0.0085642636
   0.0000646075    0.0000130292    0.0075719953
   0.0010787512    0.0017430501    0.0052818060
  -0.0000143808    0.0000273060    0.0075399876
   0.0000065698   -0.0000132261    0.0075205564
  -0.0000205850   -0.0000043887    0.0075341165
   0.0003107487   -0.0018083511    0.0057376921
   0.0000741017    0.0000098231    0.0075786114
  -0.0001674305    0.0005214906    0.0078980327
  -0.0000060067   -0.0000020740    0.0075246096
  -0.0000090200    0.0000162935    0.0075208247
  -0.0000079779   -0.0000075408    0.0075214505
   0.0000114156    0.0000047890    0.0075229704
   0.0000000835    0.0000029366    0.0075184703
  -0.0000033865    0.0000054134    0.0074706376
   0.0000036927   -0.0000107756    0.0075252354
   0.0000036330    0.0000017636    0.0074676871
   0.0000031337    0.0000792928    0.0075306594
  -0.0000618926    0.0013123951    0.0064330399
  -0.0000133994    0.0000506795    0.0075685084
   0.0004234971   -0.0001772175    0.0078932345
  -0.0000168372    0.0000356866    0.0075477064
   0.0000048573    0.0000109371    0.0074681342
   0.0000378937   -0.0000592726    0.0075106621
  -0.0002747366   -0.0003120754    0.0077036321
   0.0001844973    0.0001429104    0.0075151622
  -0.0000029583    0.0000040516    0.0075586140
  -0.0037727077   -0.0022153258    0.0065373778
   0.0000143988    0.0000161843   -0.0074539781
   0.0014052970    0.0014978487   -0.0061649084
  -0.0000321316    0.0000035246   -0.0074603856
   0.0000152724    0.0000072764   -0.0075009465
   0.0000824999   -0.0000228426   -0.0075905919
  -0.0013643133    0.0002260979   -0.0071315765
   0.0002798755   -0.0000945032   -0.0074041486
  -0.0000026622    0.0000150092   -0.0074347556
  -0.0000012711   -0.0000228124   -0.0074659586
  -0.0000003793   -0.0000035912   -0.0075056851
  -0.0000061188    0.0000525834   -0.0075840056
  -0.0000170046    0.0000021104   -0.0075041652
  -0.0000003858   -0.0000038682   -0.0074916482
  -0.0000031698   -0.0000035847   -0.0074501336
   0.0000307350   -0.0000550426   -0.0074853003
  -0.0000037698   -0.0000050475   -0.0074512661
   0.0000121691    0.0000450472   -0.0074692965
   0.0000117144   -0.0009373212   -0.0073590875
   0.0000931848    0.0003153048   -0.0073947012
   0.0000116145   -0.0000197478   -0.0074348748
  -0.0000925646    0.0000583299   -0.0074994564
  -0.0000012224   -0.0000066459   -0.0074557960
   0.0000393698   -0.0000572363   -0.0074606836
  -0.0000124191   -0.0000021725   -0.0074330568
   0.0000473051   -0.0000023625   -0.0075454414
  -0.0000009998   -0.0000053071   -0.0075062811
   0.0000013569    0.0000016625    0.0074788630
   0.0000505191    0.0000035968    0.0074234009
  -0.0000323961   -0.0000031469    0.0074723363
   0.0000435999   -0.0000566514    0.0075056553
   0.0000043069    0.0000055738    0.0074608326
  -0.0000746041    0.0000597781    0.0074995458
   0.0000236505   -0.0000210544    0.0074797571
   0.0000870875    0.0003126707    0.0076108873
   0.0000285287   -0.0009129349    0.0076172054
   0.0000118352    0.0000514934    0.0074990690
  -0.0000032708   -0.0000033370    0.0074609220
   0.0000226856   -0.0000540355    0.0075177252
   0.0000036093   -0.0000035477    0.0074612796
   0.0000031088    0.0000016511    0.0075170696
   0.0000006077    0.0000003795    0.0075091422
  -0.0000012843    0.0000606289    0.0074198544
   0.0000025039   -0.0000017147    0.0075097382
   0.0000073077   -0.0000422067    0.0074854791
   0.0000139939    0.0000355039    0.0074732006
   0.0002778698   -0.0001025001    0.0075870454
  -0.0013820207    0.0002049573    0.0078876317
   0.0000778983   -0.0000338123    0.0073995888
   0.0000050212   -0.0000022580    0.0075082183
  -0.0000276901    0.0000056044    0.0074948072
   0.0014131006    0.0014942499    0.0088637173
   0.0000345327    0.0000103807    0.0075199306
  -0.0037032377   -0.0021851426    0.0212998092
  -0.0000026501    0.0000017597   -0.0074839592
   0.0001773457    0.0001413277   -0.0075341165
  -0.0002611428   -0.0003190516   -0.0072756410
   0.0000351733   -0.0000609909   -0.0075296164
  -0.0000014221    0.0000016764   -0.0075213313
  -0.0000375248    0.0000370708   -0.0074763000
   0.0004232218   -0.0001570709   -0.0070782602
  -0.0000065840    0.0000472588   -0.0074586570
  -0.0000614573    0.0012895341   -0.0085799992
   0.0000022477    0.0000803825   -0.0075117648
  -0.0000020126    0.0000000433   -0.0075223744
  -0.0000160709   -0.0000125684   -0.0074969530
  -0.0000010801   -0.0000035677   -0.0075223148
  -0.0000021826    0.0000025292   -0.0075055063
  -0.0000008503    0.0000046145   -0.0074993968
   0.0000138939   -0.0000160849   -0.0074983537
  -0.0000010266    0.0000078762   -0.0074920654
  -0.0000050794   -0.0000024098   -0.0074665844
  -0.0001757913    0.0005097385   -0.0070439577
   0.0000817345    0.0000174548   -0.0074441135
   0.0002897598   -0.0017769765   -0.0092770457
  -0.0000162334    0.0000005378   -0.0074923933
   0.0000142674    0.0000052182   -0.0074952543
  -0.0000107414    0.0000157254   -0.0074673891
   0.0011253576    0.0017669077   -0.0097561479
   0.0000666510   -0.0000047765   -0.0074341893
  -0.0000705780   -0.0000744797   -0.0064504147
   0.0043420568    0.0073660687    0.0001089835
   0.0044089891    0.0072689503    0.0001059347
   0.0046104193    0.0070260391   -0.0005404603
   0.0042787082    0.0072415099    0.0000892854
   0.0044337697    0.0072915703    0.0000490097
   0.0044299886    0.0073197782    0.0001248034
   0.0149533823    0.0079806596    0.0010090383
   0.0044449009    0.0073233247    0.0001294526
   0.0049806200    0.0085041299    0.0021150694
   0.0044028461    0.0072942078    0.0000734981
   0.0043962374    0.0072908849   -0.0000020442
   0.0044257268    0.0072921440    0.0001662742
   0.0044089705    0.0072702914    0.0000027307
   0.0044173710    0.0073028803    0.0001603770
   0.0043861233    0.0072774664   -0.0000091479
   0.0044263117    0.0072665289    0.0002019108
   0.0044055320    0.0072859228   -0.0000049102
   0.0044026040    0.0073584616   -0.0002305690
   0.0042967200    0.0075167939    0.0000303324
   0.0044033043    0.0073188618    0.0001635024
   0.0044377372    0.0072136745   -0.0000042289
   0.0044277087    0.0073119551    0.0001625170
   0.0043968037    0.0072686300   -0.0000283326
   0.0043889470    0.0072657987   -0.0000036519
   0.0043414123    0.0072244257   -0.0000090164
   0.0044216029    0.0072878078   -0.0000033838
   0.0044334047    0.0073208138    0.0001108930
  -0.0085531101    0.0000785700    0.0001315980
  -0.0084941313    0.0001726756    0.0000756097
  -0.0083117038    0.0004133492   -0.0000787957
  -0.0084864572    0.0001733725    0.0000889796
  -0.0084840283    0.0001591651    0.0000058793
  -0.0085219294    0.0001845556    0.0001617099
  -0.0088477805   -0.0002437889   -0.0003060670
  -0.0085016564    0.0001841035    0.0001784746
  -0.0084729865    0.0002423949    0.0000124652
  -0.0084501728    0.0001224944    0.0001098513
  -0.0084966645    0.0001965423    0.0000022876
  -0.0085105672    0.0001647438    0.0001593748
  -0.0084866881    0.0001743659   -0.0000039864
  -0.0085192248    0.0001698974    0.0001617092
  -0.0084841177    0.0001679264   -0.0000261988
  -0.0085629150    0.0001634916    0.0001094750
  -0.0084886029    0.0001693126   -0.0000269338
  -0.0084856749    0.0001819504   -0.0000017988
  -0.0137788802    0.0054504452   -0.0013477787
  -0.0084972307    0.0001886152    0.0002026761
  -0.0082225204   -0.0000521608    0.0001076304
  -0.0085441694    0.0001561404    0.0001272801
  -0.0084870234    0.0001503429   -0.0000188567
  -0.0084705278    0.0001689686   -0.0000026535
  -0.0097615272    0.0001349652    0.0016291912
  -0.0079031736    0.0002405867    0.0001098427
  -0.0085434839    0.0001809229    0.0001174435
  -0.0044264719   -0.0078043193    0.0001200937
  -0.0044000372   -0.0077671483    0.0001289833
  -0.0044860542   -0.0078478083    0.0001241473
  -0.0044343956   -0.0077962875    0.0001267437
  -0.0044355206   -0.0078036487    0.0001146824
  -0.0044380948   -0.0078103393    0.0001314699
  -0.0044138618   -0.0078580678    0.0001268365
  -0.0044452623   -0.0078088865    0.0001398182
  -0.0045245923   -0.0075380206    0.0001292250
  -0.0044188835   -0.0077012479   -0.0001143047
  -0.0044062212   -0.0077820346    0.0001248035
  -0.0044188499   -0.0078491569    0.0001827387
  -0.0044408627   -0.0077869594    0.0001275446
  -0.0044366196   -0.0078103766    0.0001335804
  -0.0044191219   -0.0078000948    0.0001033280
  -0.0044537298   -0.0078228042    0.0001475402
  -0.0044301264   -0.0077833235    0.0001045782
  -0.0044211596   -0.0078002140    0.0001227189
  -0.0038319714   -0.0065644532    0.0022536693
  -0.0043987893   -0.0078075081    0.0001471087
   0.0060545988   -0.0071159527    0.0009997052
  -0.0044412576   -0.0078094229    0.0001445996
  -0.0043873675   -0.0077984408    0.0000681133
  -0.0045322739   -0.0078266039    0.0001250262
  -0.0042320229   -0.0080615282   -0.0005331117
  -0.0044166856   -0.0078020990    0.0001407242
  -0.0044951960   -0.0077079907    0.0002239146
   0.0089709461    0.0000684273    0.0001418129
   0.0095232055    0.0001150682    0.0002726181
   0.0077254549    0.0000698890    0.0017617421
   0.0089515895    0.0000432540    0.0001648151
   0.0089698955    0.0000768320    0.0001129241
   0.0089653358    0.0000676102    0.0001342609
   0.0092195943   -0.0001200064    0.0002401597
   0.0090021640    0.0001040807    0.0001857351
   0.0036627725    0.0053305505   -0.0012926474
   0.0089481026    0.0000680887    0.0001650587
   0.0089846626    0.0000640422    0.0001105543
   0.0089753643    0.0000533339    0.0001303290
   0.0089806393    0.0000649585    0.0001125995
   0.0089800358    0.0000562047    0.0001341751
   0.0089451745    0.0000633498    0.0000705687
   0.0089890659    0.0000580002    0.0001348764
   0.0089488924    0.0000938555    0.0001052159
   0.0089872703    0.0000222407    0.0001332499
   0.0089960471    0.0001265278    0.0001442764
   0.0090042129    0.0000597405    0.0001621824
   0.0086197034   -0.0003331033   -0.0002434044
   0.0089796111    0.0000664380    0.0001294573
   0.0089779273    0.0000604275    0.0001112061
   0.0089727566    0.0000690155    0.0001281488
   0.0091452524    0.0003211158    0.0000272280
   0.0089642182    0.0000713976    0.0001236915
   0.0089156777   -0.0000278207    0.0002043259
   0.0042133071   -0.0074483603    0.0001375953
   0.0042262897   -0.0071798563    0.0001661109
   0.0018181205   -0.0119520798   -0.0023647393
   0.0041036569   -0.0074543878    0.0000758387
   0.0041191839   -0.0074544474   -0.0000116106
   0.0040712245   -0.0074676424    0.0001988143
   0.0044075996   -0.0074998811    0.0000309304
   0.0041089803   -0.0074743032    0.0001648527
   0.0040775314   -0.0072975308    0.0000401030
   0.0041008852   -0.0074301064    0.0000777432
   0.0041023232   -0.0074244589   -0.0000036477
   0.0041497163   -0.0074909329    0.0001083181
   0.0040980242   -0.0074309930    0.0000049511
   0.0041088201   -0.0074703693    0.0001593875
   0.0040944479   -0.0074382648   -0.0000104583
   0.0040981919   -0.0074682608    0.0001649138
   0.0040979385   -0.0074325278   -0.0000237526
   0.0040951781   -0.0074332207   -0.0000025807
   0.0043684170   -0.0067829266    0.0001236624
   0.0041349865   -0.0074844286    0.0001141910
   0.0046559907   -0.0087480173    0.0018513746
   0.0041119121   -0.0074452981    0.0001642179
   0.0041195676   -0.0074376240   -0.0000063877
   0.0040588006   -0.0074394941   -0.0002508939
   0.0040621199   -0.0074227378   -0.0000324936
   0.0041112266   -0.0074371770    0.0000098275
   0.0041172393   -0.0074960887    0.0001168363
  -0.0045510493    0.0077319965    0.0001420515
  -0.0045123324    0.0077145174    0.0001655322
  -0.0045753568    0.0077438056    0.0001004880
  -0.0045716576    0.0077097863   -0.0001028469
  -0.0045287572    0.0077343956    0.0001275466
  -0.0045533888    0.0077359527    0.0001449737
  -0.0040470846    0.0064276904    0.0019812654
  -0.0045484528    0.0077129230    0.0001313117
  -0.0042671673    0.0083373860    0.0001859073
  -0.0045356154    0.0077169836    0.0001585817
  -0.0045438074    0.0077510625    0.0001127804
  -0.0045496710    0.0077445060    0.0001329972
  -0.0045648217    0.0077450201    0.0001156555
  -0.0045511946    0.0077485293    0.0001339478
  -0.0045381412    0.0077379122    0.0001071570
  -0.0045618415    0.0077296495    0.0001228346
  -0.0045448914    0.0077198893    0.0000740501
  -0.0045468621    0.0077310055    0.0001111843
  -0.0045820288    0.0078839213    0.0001691183
  -0.0045487508    0.0077570006    0.0001269593
  -0.0042464025    0.0076864734    0.0001313108
  -0.0045945644    0.0077623799    0.0001726593
  -0.0045243464    0.0077402145    0.0000894037
  -0.0045469478    0.0077253059    0.0001230349
  -0.0068620816    0.0032379255   -0.0023136847
  -0.0044304170    0.0079876855    0.0002102982
  -0.0044294596    0.0077034011    0.0002911449
  -0.0032541752    0.0042431094    0.0069893152
  -0.0032923818    0.0042274185    0.0069975406
  -0.0031787753    0.0042750873    0.0070300251
  -0.0032404661    0.0042425506    0.0070557147
  -0.0032545924    0.0042437725    0.0070054829
  -0.0032549500    0.0042404905    0.0069886148
  -0.0036675334    0.0045383535    0.0064919293
  -0.0032537580    0.0042437799    0.0069862902
  -0.0033524036    0.0039267391    0.0070908368
  -0.0032467246    0.0042368621    0.0070104003
  -0.0032493472    0.0042426027    0.0070082098
  -0.0032531023    0.0042446032    0.0069968700
  -0.0032343268    0.0042442903    0.0070069432
  -0.0032510757    0.0042428225    0.0069942921
  -0.0032568574    0.0042429529    0.0070108920
  -0.0032516718    0.0042489246    0.0069894344
  -0.0032348633    0.0042408966    0.0070096105
  -0.0032685399    0.0042465366    0.0069769919
  -0.0031895041    0.0041490495    0.0069455802
  -0.0032503009    0.0042412020    0.0069956630
  -0.0035777688    0.0044197552    0.0069829077
  -0.0032280087    0.0042416714    0.0069916397
  -0.0032576323    0.0042461231    0.0070132762
  -0.0032676458    0.0042442977    0.0069795698
  -0.0016692281    0.0047848299    0.0079050511
  -0.0033391714    0.0041922517    0.0069382191
  -0.0033536553    0.0042519867    0.0068136305
  -0.0020460486   -0.0049465895    0.0069949925
  -0.0020574927   -0.0049902201    0.0069911629
  -0.0020174980   -0.0048695803    0.0070085824
  -0.0020471215   -0.0049473047    0.0070010126
  -0.0020473599   -0.0049421787    0.0070057660
  -0.0020452440   -0.0049467683    0.0069920570
  -0.0021210015   -0.0048556924    0.0069837272
  -0.0020450056   -0.0049494505    0.0069911033
  -0.0019462705   -0.0052745938    0.0069429874
  -0.0020310581   -0.0050029755    0.0070341527
  -0.0020512342   -0.0049403906    0.0070063472
  -0.0020458996   -0.0049355626    0.0069857389
  -0.0020469129   -0.0049400330    0.0070040971
  -0.0020452142   -0.0049460530    0.0069926977
  -0.0020523369   -0.0049411058    0.0070089698
  -0.0020404756   -0.0049465299    0.0069907010
  -0.0020457506   -0.0049546957    0.0070069730
  -0.0020382404   -0.0049651861    0.0069738179
  -0.0019555390   -0.0055927634    0.0064222217
  -0.0020580590   -0.0049395561    0.0069827884
  -0.0045141578   -0.0027247071    0.0077860057
  -0.0020466745   -0.0049390793    0.0069888383
  -0.0020623803   -0.0049216747    0.0070131719
  -0.0020142496   -0.0049582124    0.0069983900
  -0.0022291541   -0.0046960115    0.0074670017
  -0.0020631850   -0.0049482584    0.0069943666
  -0.0019846261   -0.0050516725    0.0068024248
   0.0053028166    0.0006987751    0.0069892853
   0.0051181912    0.0006083846    0.0070218444
   0.0057240129    0.0009627938    0.0066095740
   0.0053032637    0.0007117093    0.0069955736
   0.0052992105    0.0006906390    0.0070048273
   0.0053112507    0.0006956458    0.0069892406
   0.0051863492    0.0007536113    0.0068969429
   0.0052931905    0.0006811321    0.0069850981
   0.0054288208   -0.0012015998    0.0075736344
   0.0053015649    0.0006891489    0.0069918483
   0.0052993298    0.0006912053    0.0070074648
   0.0053030550    0.0006976724    0.0069929361
   0.0052967072    0.0006895661    0.0070066005
   0.0053037703    0.0006981194    0.0069928467
   0.0052962601    0.0006853640    0.0070108324
   0.0052989423    0.0006939769    0.0069963336
   0.0053012073    0.0006825030    0.0070095956
   0.0053140521    0.0007272661    0.0069717914
   0.0052872300    0.0005811155    0.0069727153
   0.0052963793    0.0006997585    0.0069815367
   0.0054003894    0.0010919869    0.0070966035
   0.0053002536    0.0006923974    0.0069961548
   0.0052995384    0.0006975830    0.0070088357
   0.0053127110    0.0007022619    0.0069779605
   0.0051261485    0.0004135966    0.0073162168
   0.0053003132    0.0007026196    0.0069767535
   0.0053676367    0.0007891059    0.0068124086
  -0.0020016730    0.0050250292   -0.0069846660
  -0.0020155311    0.0050097704   -0.0069911629
  -0.0020066202    0.0050191879   -0.0069873035
  -0.0019909143    0.0050237775   -0.0069393963
  -0.0020221770    0.0050159693   -0.0070039630
  -0.0020013750    0.0050324798   -0.0069903582
  -0.0019884109    0.0055269003   -0.0071930140
  -0.0020053387    0.0050430894   -0.0069892555
  -0.0021409988    0.0046596527   -0.0070939958
  -0.0020108819    0.0050260425   -0.0069883913
  -0.0020158291    0.0050020218   -0.0069969594
  -0.0020060539    0.0050238967   -0.0069850236
  -0.0020166934    0.0050014257   -0.0070001334
  -0.0020080805    0.0050215125   -0.0069848895
  -0.0020179152    0.0050069690   -0.0070025176
  -0.0020022392    0.0050404072   -0.0069859773
  -0.0020215809    0.0049821734   -0.0070032626
  -0.0020126104    0.0050119758   -0.0070027113
  -0.0019879043    0.0048320889   -0.0071180165
  -0.0020141006    0.0050018430   -0.0069896877
  -0.0021143556    0.0050068498   -0.0070163757
  -0.0019948483    0.0050055385   -0.0070116073
  -0.0020414591    0.0049920678   -0.0069883615
  -0.0020100474    0.0050197244   -0.0069992542
   0.0001557469    0.0080620050   -0.0051701367
  -0.0022282600    0.0046570301   -0.0073031038
  -0.0020419061    0.0050048232   -0.0070375949
  -0.0033527017   -0.0042485818   -0.0069840252
  -0.0033892393   -0.0042906776   -0.0069862604
  -0.0032333732   -0.0041688308   -0.0070568621
  -0.0033363104   -0.0042511821   -0.0069917887
  -0.0033334494   -0.0042498522   -0.0069943964
  -0.0033304095   -0.0042459704   -0.0069890320
  -0.0033370852   -0.0042331144   -0.0069986284
  -0.0033425093   -0.0042496249   -0.0069852322
  -0.0032697916   -0.0043023266   -0.0070151687
  -0.0033638477   -0.0042798258   -0.0069280267
  -0.0033407211   -0.0042535737   -0.0070012510
  -0.0033598542   -0.0042310432   -0.0070097893
  -0.0033255816   -0.0042566992   -0.0070039034
  -0.0033444762   -0.0042487793   -0.0069856346
  -0.0033277869   -0.0042435937   -0.0069995672
  -0.0033366084   -0.0042446405   -0.0069846362
  -0.0033232570   -0.0042514727   -0.0070016235
  -0.0033341646   -0.0042483732   -0.0070042461
  -0.0035893917   -0.0045214295   -0.0074348599
  -0.0033757091   -0.0042567179   -0.0069998205
  -0.0052843094   -0.0039134324   -0.0080272853
  -0.0033453703   -0.0042561255   -0.0069880188
  -0.0033776760   -0.0042394809   -0.0069957525
  -0.0031207800   -0.0042555965   -0.0070988685
  -0.0034556389   -0.0041995011   -0.0068361908
  -0.0033308864   -0.0042491071   -0.0070019960
  -0.0033168197   -0.0042725243   -0.0070295930
   0.0053477883   -0.0007708669   -0.0069874823
   0.0051417649   -0.0006857216   -0.0070685297
   0.0057132244   -0.0009019077   -0.0072144121
   0.0053209364   -0.0007431507   -0.0069925636
   0.0053493083   -0.0007640719   -0.0069996417
   0.0053579807   -0.0007699430   -0.0069925487
   0.0050446093   -0.0005660355   -0.0073072910
   0.0053352118   -0.0007787049   -0.0070279241
   0.0081222355   -0.0023367703   -0.0062710494
   0.0053457320   -0.0007620752   -0.0069933385
   0.0053417385   -0.0007586777   -0.0069876611
   0.0053576529   -0.0007680058   -0.0069846511
   0.0053389072   -0.0007532239   -0.0069991350
   0.0053491890   -0.0007649958   -0.0069861263
   0.0053503513   -0.0007562041   -0.0069992542
   0.0053460002   -0.0007619560   -0.0069881827
   0.0053500831   -0.0008115768   -0.0069943368
   0.0053038597   -0.0006207228   -0.0070612431
   0.0053440928   -0.0007809401   -0.0070046335
   0.0053477883   -0.0007682443   -0.0069879591
   0.0053760707   -0.0006392598   -0.0069524944
   0.0053471625   -0.0007665157   -0.0069845319
   0.0053401589   -0.0007520616   -0.0070040524
   0.0053443015   -0.0007578135   -0.0070037842
   0.0053397417   -0.0008534491   -0.0069513917
   0.0053446889   -0.0007605851   -0.0070036352
   0.0053568482   -0.0007307529   -0.0070239753
   0.0034613609   -0.0042767338   -0.0071470439
   0.0035085678   -0.0043471716   -0.0070047677
   0.0051257610   -0.0037411973   -0.0060639679
   0.0035851002   -0.0042945072   -0.0069644302
   0.0035741329   -0.0042868555   -0.0069535226
   0.0036066175   -0.0042959563   -0.0069692433
   0.0032494664   -0.0041129999   -0.0069865733
   0.0035875440   -0.0042932630   -0.0069654137
   0.0036536455   -0.0043931790   -0.0069901496
   0.0035776496   -0.0042926520   -0.0069612861
   0.0035805106   -0.0042931251   -0.0069544017
   0.0035628676   -0.0042893849   -0.0069648921
   0.0035845637   -0.0042922236   -0.0069556981
   0.0035859942   -0.0042907521   -0.0069653690
   0.0036023855   -0.0042936280   -0.0069378465
   0.0035970807   -0.0042910241   -0.0069634616
   0.0035923719   -0.0042940974   -0.0069356859
   0.0035851598   -0.0042975135   -0.0069572479
   0.0034784079   -0.0046079718   -0.0068726242
   0.0035787225   -0.0042952634   -0.0069716126
   0.0031352639   -0.0039963424   -0.0074457079
   0.0035827756   -0.0042961687   -0.0069710016
   0.0035861731   -0.0042918101   -0.0069394410
   0.0035873055   -0.0042920150   -0.0069151521
   0.0036764145   -0.0042623244   -0.0069122463
   0.0035390258   -0.0043055527   -0.0069719106
   0.0035875440   -0.0042915754   -0.0069742799
   0.0019823015    0.0051420331   -0.0071467459
   0.0019100904    0.0052391291   -0.0069784671
   0.0017483532    0.0054824352   -0.0065160245
   0.0019606948    0.0052287579   -0.0069754720
   0.0019187033    0.0052512884   -0.0069631040
   0.0019238591    0.0052534342   -0.0069672763
  -0.0005568862    0.0074681044   -0.0061903596
   0.0019169450    0.0052499175   -0.0069726110
   0.0020125210    0.0046110749   -0.0075118989
   0.0019311309    0.0052328706   -0.0069678426
   0.0019243360    0.0052356124   -0.0069561750
   0.0019226074    0.0052522421   -0.0069660395
   0.0019197762    0.0052477121   -0.0069569051
   0.0019245446    0.0052456856   -0.0069653839
   0.0019208193    0.0052525997   -0.0069396049
   0.0019255877    0.0052524209   -0.0069721043
   0.0019181967    0.0052548647   -0.0069376379
   0.0019440651    0.0051805973   -0.0069300234
   0.0020268559    0.0049073696   -0.0070256740
   0.0019305050    0.0052318573   -0.0069674850
   0.0018409491    0.0053511858   -0.0069568902
   0.0019250810    0.0052413940   -0.0069658458
   0.0019198060    0.0052571297   -0.0069351047
   0.0019253790    0.0052436590   -0.0069626570
   0.0019522607    0.0053303242   -0.0069335997
   0.0019121468    0.0052043796   -0.0069737285
   0.0019246042    0.0052463412   -0.0069750398
  -0.0054362416   -0.0008604825   -0.0071406662
  -0.0055187047   -0.0009625852   -0.0069690347
  -0.0056788921   -0.0012392998   -0.0066537559
  -0.0055014789   -0.0009598732   -0.0069661289
  -0.0055101812   -0.0009592772   -0.0069556236
  -0.0055088699   -0.0009622574   -0.0069647729
  -0.0053877831   -0.0005406141   -0.0068716258
  -0.0055226386   -0.0009699464   -0.0069758594
  -0.0055367649   -0.0010980368   -0.0069614202
  -0.0055039525   -0.0009399652   -0.0069659799
  -0.0055069625   -0.0009710193   -0.0069559366
  -0.0055072010   -0.0009603798   -0.0069648623
  -0.0055097044   -0.0009671152   -0.0069522709
  -0.0055095553   -0.0009635985   -0.0069648623
  -0.0055159032   -0.0009694695   -0.0069349855
  -0.0055031180   -0.0009565353   -0.0069652498
  -0.0055143833   -0.0009694993   -0.0069347918
  -0.0055080056   -0.0009690523   -0.0069621354
  -0.0053682923   -0.0028522909   -0.0063887388
  -0.0055087507   -0.0009587109   -0.0069757849
  -0.0056284964   -0.0009058416   -0.0070416480
  -0.0055008829   -0.0009523034   -0.0069680810
  -0.0055176616   -0.0009736419   -0.0069337636
  -0.0055110455   -0.0009531081   -0.0069583952
  -0.0050701797   -0.0006808639   -0.0073307902
  -0.0056980252   -0.0010597706   -0.0069323480
  -0.0055093169   -0.0009638965   -0.0069749802
   0.0019832253   -0.0050715208    0.0069280863
   0.0018007457   -0.0054219365    0.0066901892
   0.0041864514   -0.0020049214    0.0088263601
   0.0020198524   -0.0050625801    0.0069883168
   0.0019990206   -0.0050624609    0.0069937706
   0.0020324588   -0.0050738454    0.0069401860
   0.0019187033   -0.0050580502    0.0069638342
   0.0020150542   -0.0050748587    0.0069579184
   0.0020439029   -0.0052445531    0.0068808943
   0.0020183623   -0.0050683618    0.0069890618
   0.0020097792   -0.0050931573    0.0069828033
   0.0020145774   -0.0050750375    0.0069628358
   0.0020144284   -0.0050715208    0.0069790930
   0.0020115376   -0.0050820112    0.0069581866
   0.0020172000   -0.0050639510    0.0069959462
   0.0020097494   -0.0050836205    0.0069565475
   0.0020197928   -0.0050613880    0.0069999844
   0.0020195842   -0.0050574541    0.0069989264
   0.0018798113   -0.0054397583    0.0068870187
   0.0020111203   -0.0050863624    0.0069581270
   0.0020416677   -0.0045450926    0.0068091154
   0.0020088255   -0.0050895214    0.0069567263
   0.0020092726   -0.0050597787    0.0069907606
   0.0020448565   -0.0050461888    0.0070498735
   0.0020225346   -0.0050599575    0.0070063174
   0.0020199120   -0.0050581694    0.0069972426
   0.0020129085   -0.0050863624    0.0069543868
   0.0034031868    0.0042535514    0.0069385022
   0.0033745170    0.0042804219    0.0069833845
   0.0032424927    0.0043262579    0.0071385205
   0.0035834312    0.0042710640    0.0068876445
   0.0033324957    0.0042897426    0.0069813281
   0.0033973455    0.0042813048    0.0069521219
   0.0015921593    0.0046356432    0.0060884804
   0.0033697486    0.0042757951    0.0069454610
   0.0031194091    0.0040057339    0.0065656304
   0.0033739805    0.0042778291    0.0069825649
   0.0033894181    0.0042789578    0.0069784075
   0.0033876300    0.0042810738    0.0069560111
   0.0033661127    0.0042839013    0.0069815665
   0.0033932924    0.0042805672    0.0069556087
   0.0033817887    0.0042720884    0.0069898963
   0.0033824444    0.0042981021    0.0069349557
   0.0033653975    0.0042711720    0.0069929957
   0.0033420324    0.0042517558    0.0070587695
   0.0034381151    0.0042291582    0.0069647729
   0.0034026504    0.0042818300    0.0069539845
   0.0033559799    0.0042926036    0.0069925487
   0.0033884645    0.0042811744    0.0069549680
   0.0033720136    0.0042784214    0.0069994479
   0.0033750534    0.0042811520    0.0069942474
   0.0034829378    0.0043629631    0.0069333464
   0.0033193231    0.0042384379    0.0070033222
   0.0033907294    0.0042814463    0.0069588274
  -0.0053904355    0.0008292794    0.0069413781
  -0.0054034293    0.0007890761    0.0069826096