phonopy:
  version: "2.43.6"
  frequency_unit_conversion_factor: 15.633302
  symmetry_tolerance: 1.00000e-05
  configuration:
    cell_filename: "POSCAR-primitive"
    create_displacements: ".true."
    dim: "3 3 3"

physical_unit:
  atomic_mass: "AMU"
  length: "angstrom"

space_group:
  type: "R-3c"
  number: 167
  Hall_symbol: "-R 3 2\"c"

supercell_matrix:
- [   3,   0,   0 ]
- [   0,   3,   0 ]
- [   0,   0,   3 ]

primitive_cell:
  lattice:
  - [     4.471767752464215,     2.581776359293372,     7.656693819814249 ] # a
  - [    -4.471767761933927,     2.581776373087595,     7.656693820499623 ] # b
  - [     0.000000007211295,    -5.163552596447333,     7.656693774743658 ] # c
  points:
  - symbol: Na # 1
    coordinates: [  0.000000006457451,  0.999999996492670,  0.999999988262680 ]
    mass: 22.989769
  - symbol: Na # 2
    coordinates: [  0.500000008660679,  0.500000004667140,  0.500000010280828 ]
    mass: 22.989769
  - symbol: Zr # 3
    coordinates: [  0.354815457136250,  0.354815465421414,  0.354815500740900 ]
    mass: 91.224000
  - symbol: Zr # 4
    coordinates: [  0.145184540753992,  0.145184514200834,  0.145184501116670 ]
    mass: 91.224000
  - symbol: Zr # 5
    coordinates: [  0.854815485816298,  0.854815500197854,  0.854815489527087 ]
    mass: 91.224000
  - symbol: Zr # 6
    coordinates: [  0.645184526800396,  0.645184494840051,  0.645184524171160 ]
    mass: 91.224000
  - symbol: P # 7
    coordinates: [  0.458271832606125,  0.750000208522786,  0.041727941120509 ]
    mass: 30.973762
  - symbol: P # 8
    coordinates: [  0.041727924105234,  0.458271826293113,  0.750000220238712 ]
    mass: 30.973762
  - symbol: P # 9
    coordinates: [  0.541728472495363,  0.250000031679740,  0.958271351360147 ]
    mass: 30.973762
  - symbol: P # 10
    coordinates: [  0.958271363600733,  0.541728465603176,  0.250000049695878 ]
    mass: 30.973762
  - symbol: P # 11
    coordinates: [  0.750000203552185,  0.041727927661679,  0.458271823728864 ]
    mass: 30.973762
  - symbol: P # 12
    coordinates: [  0.250000031304216,  0.958271313426623,  0.541728442222251 ]
    mass: 30.973762
  - symbol: O # 13
    coordinates: [  0.415342196506905,  0.779607638518483,  0.563212100958882 ]
    mass: 15.999400
  - symbol: O # 14
    coordinates: [  0.563212083887218,  0.415342195437902,  0.779607617456672 ]
    mass: 15.999400
  - symbol: O # 15
    coordinates: [  0.779607657436234,  0.563212093063750,  0.415342214104747 ]
    mass: 15.999400
  - symbol: O # 16
    coordinates: [  0.084657703581012,  0.936787930350471,  0.720392459941340 ]
    mass: 15.999400
  - symbol: O # 17
    coordinates: [  0.720392453516817,  0.084657688433149,  0.936787910013481 ]
    mass: 15.999400
  - symbol: O # 18
    coordinates: [  0.936787901029281,  0.720392441327081,  0.084657711339206 ]
    mass: 15.999400
  - symbol: O # 19
    coordinates: [  0.584657432936987,  0.220392739919021,  0.436787817105381 ]
    mass: 15.999400
  - symbol: O # 20
    coordinates: [  0.436787841825847,  0.584657445351978,  0.220392736616540 ]
    mass: 15.999400
  - symbol: O # 21
    coordinates: [  0.220392749870636,  0.436787848702347,  0.584657417731758 ]
    mass: 15.999400
  - symbol: O # 22
    coordinates: [  0.915342329226759,  0.063212133290091,  0.279607478762792 ]
    mass: 15.999400
  - symbol: O # 23
    coordinates: [  0.279607489187080,  0.915342342081547,  0.063212112617601 ]
    mass: 15.999400
  - symbol: O # 24
    coordinates: [  0.063212131801351,  0.279607467182858,  0.915342355461879 ]
    mass: 15.999400
  - symbol: O # 25
    coordinates: [  0.995588357447067,  0.381332901905675,  0.208305735616226 ]
    mass: 15.999400
  - symbol: O # 26
    coordinates: [  0.381332894806470,  0.208305715188425,  0.995588364304972 ]
    mass: 15.999400
  - symbol: O # 27
    coordinates: [  0.208305759678907,  0.995588355018677,  0.381332903275115 ]
    mass: 15.999400
  - symbol: O # 28
    coordinates: [  0.118667244995453,  0.504411619140916,  0.291694322873493 ]
    mass: 15.999400
  - symbol: O # 29
    coordinates: [  0.504411619241268,  0.291694320874219,  0.118667266449634 ]
    mass: 15.999400
  - symbol: O # 30
    coordinates: [  0.291694325228843,  0.118667269123146,  0.504411599711118 ]
    mass: 15.999400
  - symbol: O # 31
    coordinates: [  0.004411749235497,  0.618666986258435,  0.791694243338260 ]
    mass: 15.999400
  - symbol: O # 32
    coordinates: [  0.618666984024413,  0.791694265118477,  0.004411731728693 ]
    mass: 15.999400
  - symbol: O # 33
    coordinates: [  0.791694239660576,  0.004411725971340,  0.618667005526184 ]
    mass: 15.999400
  - symbol: O # 34
    coordinates: [  0.881333078313526,  0.495588270936430,  0.708305732504422 ]
    mass: 15.999400
  - symbol: O # 35
    coordinates: [  0.495588265216080,  0.708305726609818,  0.881333057158002 ]
    mass: 15.999400
  - symbol: O # 36
    coordinates: [  0.708305757662899,  0.881333077884289,  0.495588242583304 ]
    mass: 15.999400
  reciprocal_lattice: # without 2pi
  - [     0.111812604680826,     0.064555037206371,     0.043534891035336 ] # a*
  - [    -0.111812604475018,     0.064555036861459,     0.043534891013349 ] # b*
  - [    -0.000000000195799,    -0.129110074833606,     0.043534892170425 ] # c*

unit_cell:
  lattice:
  - [     4.471767752464216,     2.581776359293373,     7.656693819814250 ] # a
  - [    -4.471767761933928,     2.581776373087595,     7.656693820499623 ] # b
  - [     0.000000007211295,    -5.163552596447333,     7.656693774743658 ] # c
  points:
  - symbol: Na # 1
    coordinates: [  0.000000006457451, -0.000000003507330, -0.000000011737320 ]
    mass: 22.989769
    reduced_to: 1
  - symbol: Na # 2
    coordinates: [  0.500000008660679,  0.500000004667140,  0.500000010280828 ]
    mass: 22.989769
    reduced_to: 2
  - symbol: Zr # 3
    coordinates: [  0.354815457136250,  0.354815465421414,  0.354815500740900 ]
    mass: 91.224000
    reduced_to: 3
  - symbol: Zr # 4
    coordinates: [  0.145184540753992,  0.145184514200834,  0.145184501116670 ]
    mass: 91.224000
    reduced_to: 4
  - symbol: Zr # 5
    coordinates: [  0.854815485816298,  0.854815500197854,  0.854815489527087 ]
    mass: 91.224000
    reduced_to: 5
  - symbol: Zr # 6
    coordinates: [  0.645184526800396,  0.645184494840051,  0.645184524171160 ]
    mass: 91.224000
    reduced_to: 6
  - symbol: P # 7
    coordinates: [  0.458271832606125,  0.750000208522786,  0.041727941120509 ]
    mass: 30.973762
    reduced_to: 7
  - symbol: P # 8
    coordinates: [  0.041727924105234,  0.458271826293113,  0.750000220238712 ]
    mass: 30.973762
    reduced_to: 8
  - symbol: P # 9
    coordinates: [  0.541728472495363,  0.250000031679740,  0.958271351360147 ]
    mass: 30.973762
    reduced_to: 9
  - symbol: P # 10
    coordinates: [  0.958271363600733,  0.541728465603176,  0.250000049695878 ]
    mass: 30.973762
    reduced_to: 10
  - symbol: P # 11
    coordinates: [  0.750000203552185,  0.041727927661679,  0.458271823728864 ]
    mass: 30.973762
    reduced_to: 11
  - symbol: P # 12
    coordinates: [  0.250000031304216,  0.958271313426624,  0.541728442222251 ]
    mass: 30.973762
    reduced_to: 12
  - symbol: O # 13
    coordinates: [  0.415342196506905,  0.779607638518484,  0.563212100958882 ]
    mass: 15.999400
    reduced_to: 13
  - symbol: O # 14
    coordinates: [  0.563212083887218,  0.415342195437902,  0.779607617456672 ]
    mass: 15.999400
    reduced_to: 14
  - symbol: O # 15
    coordinates: [  0.779607657436234,  0.563212093063750,  0.415342214104747 ]
    mass: 15.999400
    reduced_to: 15
  - symbol: O # 16
    coordinates: [  0.084657703581012,  0.936787930350471,  0.720392459941340 ]
    mass: 15.999400
    reduced_to: 16
  - symbol: O # 17
    coordinates: [  0.720392453516817,  0.084657688433149,  0.936787910013481 ]
    mass: 15.999400
    reduced_to: 17
  - symbol: O # 18
    coordinates: [  0.936787901029281,  0.720392441327082,  0.084657711339206 ]
    mass: 15.999400
    reduced_to: 18
  - symbol: O # 19
    coordinates: [  0.584657432936987,  0.220392739919021,  0.436787817105381 ]
    mass: 15.999400
    reduced_to: 19
  - symbol: O # 20
    coordinates: [  0.436787841825847,  0.584657445351978,  0.220392736616540 ]
    mass: 15.999400
    reduced_to: 20
  - symbol: O # 21
    coordinates: [  0.220392749870636,  0.436787848702347,  0.584657417731758 ]
    mass: 15.999400
    reduced_to: 21
  - symbol: O # 22
    coordinates: [  0.915342329226759,  0.063212133290091,  0.279607478762792 ]
    mass: 15.999400
    reduced_to: 22
  - symbol: O # 23
    coordinates: [  0.279607489187080,  0.915342342081547,  0.063212112617601 ]
    mass: 15.999400
    reduced_to: 23
  - symbol: O # 24
    coordinates: [  0.063212131801351,  0.279607467182858,  0.915342355461879 ]
    mass: 15.999400
    reduced_to: 24
  - symbol: O # 25
    coordinates: [  0.995588357447067,  0.381332901905675,  0.208305735616226 ]
    mass: 15.999400
    reduced_to: 25
  - symbol: O # 26
    coordinates: [  0.381332894806470,  0.208305715188425,  0.995588364304972 ]
    mass: 15.999400
    reduced_to: 26
  - symbol: O # 27
    coordinates: [  0.208305759678907,  0.995588355018677,  0.381332903275115 ]
    mass: 15.999400
    reduced_to: 27
  - symbol: O # 28
    coordinates: [  0.118667244995453,  0.504411619140916,  0.291694322873493 ]
    mass: 15.999400
    reduced_to: 28
  - symbol: O # 29
    coordinates: [  0.504411619241268,  0.291694320874219,  0.118667266449634 ]
    mass: 15.999400
    reduced_to: 29
  - symbol: O # 30
    coordinates: [  0.291694325228843,  0.118667269123146,  0.504411599711118 ]
    mass: 15.999400
    reduced_to: 30
  - symbol: O # 31
    coordinates: [  0.004411749235497,  0.618666986258435,  0.791694243338260 ]
    mass: 15.999400
    reduced_to: 31
  - symbol: O # 32
    coordinates: [  0.618666984024413,  0.791694265118477,  0.004411731728693 ]
    mass: 15.999400
    reduced_to: 32
  - symbol: O # 33
    coordinates: [  0.791694239660576,  0.004411725971340,  0.618667005526184 ]
    mass: 15.999400
    reduced_to: 33
  - symbol: O # 34
    coordinates: [  0.881333078313526,  0.495588270936430,  0.708305732504422 ]
    mass: 15.999400
    reduced_to: 34
  - symbol: O # 35
    coordinates: [  0.495588265216080,  0.708305726609818,  0.881333057158002 ]
    mass: 15.999400
    reduced_to: 35
  - symbol: O # 36
    coordinates: [  0.708305757662899,  0.881333077884289,  0.495588242583304 ]
    mass: 15.999400
    reduced_to: 36

supercell:
  lattice:
  - [    13.415303257392647,     7.745329077880118,    22.970081459442749 ] # a
  - [   -13.415303285801784,     7.745329119262784,    22.970081461498868 ] # b
  - [     0.000000021633886,   -15.490657789341999,    22.970081324230975 ] # c
  points:
  - symbol: Na # 1
    coordinates: [  0.000000002152484,  0.999999998830890,  0.999999996087560 ]
    mass: 22.989769
    reduced_to: 1
  - symbol: Na # 2
    coordinates: [  0.333333335485817,  0.999999998830890,  0.999999996087560 ]
    mass: 22.989769
    reduced_to: 1
  - symbol: Na # 3
    coordinates: [  0.666666668819150,  0.999999998830890,  0.999999996087560 ]
    mass: 22.989769
    reduced_to: 1
  - symbol: Na # 4
    coordinates: [  0.000000002152484,  0.333333332164223,  0.999999996087560 ]
    mass: 22.989769
    reduced_to: 1
  - symbol: Na # 5
    coordinates: [  0.333333335485817,  0.333333332164223,  0.999999996087560 ]
    mass: 22.989769
    reduced_to: 1
  - symbol: Na # 6
    coordinates: [  0.666666668819150,  0.333333332164223,  0.999999996087560 ]
    mass: 22.989769
    reduced_to: 1
  - symbol: Na # 7
    coordinates: [  0.000000002152484,  0.666666665497556,  0.999999996087560 ]
    mass: 22.989769
    reduced_to: 1
  - symbol: Na # 8
    coordinates: [  0.333333335485817,  0.666666665497556,  0.999999996087560 ]
    mass: 22.989769
    reduced_to: 1
  - symbol: Na # 9
    coordinates: [  0.666666668819150,  0.666666665497556,  0.999999996087560 ]
    mass: 22.989769
    reduced_to: 1
  - symbol: Na # 10
    coordinates: [  0.000000002152484,  0.999999998830890,  0.333333329420893 ]
    mass: 22.989769
    reduced_to: 1
  - symbol: Na # 11
    coordinates: [  0.333333335485817,  0.999999998830890,  0.333333329420893 ]
    mass: 22.989769
    reduced_to: 1
  - symbol: Na # 12
    coordinates: [  0.666666668819150,  0.999999998830890,  0.333333329420893 ]
    mass: 22.989769
    reduced_to: 1
  - symbol: Na # 13
    coordinates: [  0.000000002152484,  0.333333332164223,  0.333333329420893 ]
    mass: 22.989769
    reduced_to: 1
  - symbol: Na # 14
    coordinates: [  0.333333335485817,  0.333333332164223,  0.333333329420893 ]
    mass: 22.989769
    reduced_to: 1
  - symbol: Na # 15
    coordinates: [  0.666666668819150,  0.333333332164223,  0.333333329420893 ]
    mass: 22.989769
    reduced_to: 1
  - symbol: Na # 16
    coordinates: [  0.000000002152484,  0.666666665497556,  0.333333329420893 ]
    mass: 22.989769
    reduced_to: 1
  - symbol: Na # 17
    coordinates: [  0.333333335485817,  0.666666665497556,  0.333333329420893 ]
    mass: 22.989769
    reduced_to: 1
  - symbol: Na # 18
    coordinates: [  0.666666668819150,  0.666666665497556,  0.333333329420893 ]
    mass: 22.989769
    reduced_to: 1
  - symbol: Na # 19
    coordinates: [  0.000000002152484,  0.999999998830890,  0.666666662754226 ]
    mass: 22.989769
    reduced_to: 1
  - symbol: Na # 20
    coordinates: [  0.333333335485817,  0.999999998830890,  0.666666662754226 ]
    mass: 22.989769
    reduced_to: 1
  - symbol: Na # 21
    coordinates: [  0.666666668819150,  0.999999998830890,  0.666666662754226 ]
    mass: 22.989769
    reduced_to: 1
  - symbol: Na # 22
    coordinates: [  0.000000002152484,  0.333333332164223,  0.666666662754226 ]
    mass: 22.989769
    reduced_to: 1
  - symbol: Na # 23
    coordinates: [  0.333333335485817,  0.333333332164223,  0.666666662754226 ]
    mass: 22.989769
    reduced_to: 1
  - symbol: Na # 24
    coordinates: [  0.666666668819150,  0.333333332164223,  0.666666662754226 ]
    mass: 22.989769
    reduced_to: 1
  - symbol: Na # 25
    coordinates: [  0.000000002152484,  0.666666665497556,  0.666666662754226 ]
    mass: 22.989769
    reduced_to: 1
  - symbol: Na # 26
    coordinates: [  0.333333335485817,  0.666666665497556,  0.666666662754226 ]
    mass: 22.989769
    reduced_to: 1
  - symbol: Na # 27
    coordinates: [  0.666666668819150,  0.666666665497556,  0.666666662754226 ]
    mass: 22.989769
    reduced_to: 1
  - symbol: Na # 28
    coordinates: [  0.166666669553560,  0.166666668222380,  0.166666670093609 ]
    mass: 22.989769
    reduced_to: 28
  - symbol: Na # 29
    coordinates: [  0.500000002886893,  0.166666668222380,  0.166666670093609 ]
    mass: 22.989769
    reduced_to: 28
  - symbol: Na # 30
    coordinates: [  0.833333336220226,  0.166666668222380,  0.166666670093609 ]
    mass: 22.989769
    reduced_to: 28
  - symbol: Na # 31
    coordinates: [  0.166666669553560,  0.500000001555713,  0.166666670093609 ]
    mass: 22.989769
    reduced_to: 28
  - symbol: Na # 32
    coordinates: [  0.500000002886893,  0.500000001555713,  0.166666670093609 ]
    mass: 22.989769
    reduced_to: 28
  - symbol: Na # 33
    coordinates: [  0.833333336220226,  0.500000001555713,  0.166666670093609 ]
    mass: 22.989769
    reduced_to: 28
  - symbol: Na # 34
    coordinates: [  0.166666669553560,  0.833333334889047,  0.166666670093609 ]
    mass: 22.989769
    reduced_to: 28
  - symbol: Na # 35
    coordinates: [  0.500000002886893,  0.833333334889047,  0.166666670093609 ]
    mass: 22.989769
    reduced_to: 28
  - symbol: Na # 36
    coordinates: [  0.833333336220226,  0.833333334889047,  0.166666670093609 ]
    mass: 22.989769
    reduced_to: 28
  - symbol: Na # 37
    coordinates: [  0.166666669553560,  0.166666668222380,  0.500000003426943 ]
    mass: 22.989769
    reduced_to: 28
  - symbol: Na # 38
    coordinates: [  0.500000002886893,  0.166666668222380,  0.500000003426943 ]
    mass: 22.989769
    reduced_to: 28
  - symbol: Na # 39
    coordinates: [  0.833333336220226,  0.166666668222380,  0.500000003426943 ]
    mass: 22.989769
    reduced_to: 28
  - symbol: Na # 40
    coordinates: [  0.166666669553560,  0.500000001555713,  0.500000003426943 ]
    mass: 22.989769
    reduced_to: 28
  - symbol: Na # 41
    coordinates: [  0.500000002886893,  0.500000001555713,  0.500000003426943 ]
    mass: 22.989769
    reduced_to: 28
  - symbol: Na # 42
    coordinates: [  0.833333336220226,  0.500000001555713,  0.500000003426943 ]
    mass: 22.989769
    reduced_to: 28
  - symbol: Na # 43
    coordinates: [  0.166666669553560,  0.833333334889047,  0.500000003426943 ]
    mass: 22.989769
    reduced_to: 28
  - symbol: Na # 44
    coordinates: [  0.500000002886893,  0.833333334889047,  0.500000003426943 ]
    mass: 22.989769
    reduced_to: 28
  - symbol: Na # 45
    coordinates: [  0.833333336220226,  0.833333334889047,  0.500000003426943 ]
    mass: 22.989769
    reduced_to: 28
  - symbol: Na # 46
    coordinates: [  0.166666669553560,  0.166666668222380,  0.833333336760276 ]
    mass: 22.989769
    reduced_to: 28
  - symbol: Na # 47
    coordinates: [  0.500000002886893,  0.166666668222380,  0.833333336760276 ]
    mass: 22.989769
    reduced_to: 28
  - symbol: Na # 48
    coordinates: [  0.833333336220226,  0.166666668222380,  0.833333336760276 ]
    mass: 22.989769
    reduced_to: 28
  - symbol: Na # 49
    coordinates: [  0.166666669553560,  0.500000001555713,  0.833333336760276 ]
    mass: 22.989769
    reduced_to: 28
  - symbol: Na # 50
    coordinates: [  0.500000002886893,  0.500000001555713,  0.833333336760276 ]
    mass: 22.989769
    reduced_to: 28
  - symbol: Na # 51
    coordinates: [  0.833333336220226,  0.500000001555713,  0.833333336760276 ]
    mass: 22.989769
    reduced_to: 28
  - symbol: Na # 52
    coordinates: [  0.166666669553560,  0.833333334889047,  0.833333336760276 ]
    mass: 22.989769
    reduced_to: 28
  - symbol: Na # 53
    coordinates: [  0.500000002886893,  0.833333334889047,  0.833333336760276 ]
    mass: 22.989769
    reduced_to: 28
  - symbol: Na # 54
    coordinates: [  0.833333336220226,  0.833333334889047,  0.833333336760276 ]
    mass: 22.989769
    reduced_to: 28
  - symbol: Zr # 55
    coordinates: [  0.118271819045417,  0.118271821807138,  0.118271833580300 ]
    mass: 91.224000
    reduced_to: 55
  - symbol: Zr # 56
    coordinates: [  0.451605152378750,  0.118271821807138,  0.118271833580300 ]
    mass: 91.224000
    reduced_to: 55
  - symbol: Zr # 57
    coordinates: [  0.784938485712083,  0.118271821807138,  0.118271833580300 ]
    mass: 91.224000
    reduced_to: 55
  - symbol: Zr # 58
    coordinates: [  0.118271819045417,  0.451605155140471,  0.118271833580300 ]
    mass: 91.224000
    reduced_to: 55
  - symbol: Zr # 59
    coordinates: [  0.451605152378750,  0.451605155140471,  0.118271833580300 ]
    mass: 91.224000
    reduced_to: 55
  - symbol: Zr # 60
    coordinates: [  0.784938485712083,  0.451605155140471,  0.118271833580300 ]
    mass: 91.224000
    reduced_to: 55
  - symbol: Zr # 61
    coordinates: [  0.118271819045417,  0.784938488473805,  0.118271833580300 ]
    mass: 91.224000
    reduced_to: 55
  - symbol: Zr # 62
    coordinates: [  0.451605152378750,  0.784938488473805,  0.118271833580300 ]
    mass: 91.224000
    reduced_to: 55
  - symbol: Zr # 63
    coordinates: [  0.784938485712083,  0.784938488473805,  0.118271833580300 ]
    mass: 91.224000
    reduced_to: 55
  - symbol: Zr # 64
    coordinates: [  0.118271819045417,  0.118271821807138,  0.451605166913633 ]
    mass: 91.224000
    reduced_to: 55
  - symbol: Zr # 65
    coordinates: [  0.451605152378750,  0.118271821807138,  0.451605166913633 ]
    mass: 91.224000
    reduced_to: 55
  - symbol: Zr # 66
    coordinates: [  0.784938485712083,  0.118271821807138,  0.451605166913633 ]
    mass: 91.224000
    reduced_to: 55
  - symbol: Zr # 67
    coordinates: [  0.118271819045417,  0.451605155140471,  0.451605166913633 ]
    mass: 91.224000
    reduced_to: 55
  - symbol: Zr # 68
    coordinates: [  0.451605152378750,  0.451605155140471,  0.451605166913633 ]
    mass: 91.224000
    reduced_to: 55
  - symbol: Zr # 69
    coordinates: [  0.784938485712083,  0.451605155140471,  0.451605166913633 ]
    mass: 91.224000
    reduced_to: 55
  - symbol: Zr # 70
    coordinates: [  0.118271819045417,  0.784938488473805,  0.451605166913633 ]
    mass: 91.224000
    reduced_to: 55
  - symbol: Zr # 71
    coordinates: [  0.451605152378750,  0.784938488473805,  0.451605166913633 ]
    mass: 91.224000
    reduced_to: 55
  - symbol: Zr # 72
    coordinates: [  0.784938485712083,  0.784938488473805,  0.451605166913633 ]
    mass: 91.224000
    reduced_to: 55
  - symbol: Zr # 73
    coordinates: [  0.118271819045417,  0.118271821807138,  0.784938500246967 ]
    mass: 91.224000
    reduced_to: 55
  - symbol: Zr # 74
    coordinates: [  0.451605152378750,  0.118271821807138,  0.784938500246967 ]
    mass: 91.224000
    reduced_to: 55
  - symbol: Zr # 75
    coordinates: [  0.784938485712083,  0.118271821807138,  0.784938500246967 ]
    mass: 91.224000
    reduced_to: 55
  - symbol: Zr # 76
    coordinates: [  0.118271819045417,  0.451605155140471,  0.784938500246967 ]
    mass: 91.224000
    reduced_to: 55
  - symbol: Zr # 77
    coordinates: [  0.451605152378750,  0.451605155140471,  0.784938500246967 ]
    mass: 91.224000
    reduced_to: 55
  - symbol: Zr # 78
    coordinates: [  0.784938485712083,  0.451605155140471,  0.784938500246967 ]
    mass: 91.224000
    reduced_to: 55
  - symbol: Zr # 79
    coordinates: [  0.118271819045417,  0.784938488473805,  0.784938500246967 ]
    mass: 91.224000
    reduced_to: 55
  - symbol: Zr # 80
    coordinates: [  0.451605152378750,  0.784938488473805,  0.784938500246967 ]
    mass: 91.224000
    reduced_to: 55
  - symbol: Zr # 81
    coordinates: [  0.784938485712083,  0.784938488473805,  0.784938500246967 ]
    mass: 91.224000
    reduced_to: 55
  - symbol: Zr # 82
    coordinates: [  0.048394846917997,  0.048394838066945,  0.048394833705557 ]
    mass: 91.224000
    reduced_to: 82
  - symbol: Zr # 83
    coordinates: [  0.381728180251331,  0.048394838066945,  0.048394833705557 ]
    mass: 91.224000
    reduced_to: 82
  - symbol: Zr # 84
    coordinates: [  0.715061513584664,  0.048394838066945,  0.048394833705557 ]
    mass: 91.224000
    reduced_to: 82
  - symbol: Zr # 85
    coordinates: [  0.048394846917997,  0.381728171400278,  0.048394833705557 ]
    mass: 91.224000
    reduced_to: 82
  - symbol: Zr # 86
    coordinates: [  0.381728180251331,  0.381728171400278,  0.048394833705557 ]
    mass: 91.224000
    reduced_to: 82
  - symbol: Zr # 87
    coordinates: [  0.715061513584664,  0.381728171400278,  0.048394833705557 ]
    mass: 91.224000
    reduced_to: 82
  - symbol: Zr # 88
    coordinates: [  0.048394846917997,  0.715061504733611,  0.048394833705557 ]
    mass: 91.224000
    reduced_to: 82
  - symbol: Zr # 89
    coordinates: [  0.381728180251331,  0.715061504733611,  0.048394833705557 ]
    mass: 91.224000
    reduced_to: 82
  - symbol: Zr # 90
    coordinates: [  0.715061513584664,  0.715061504733611,  0.048394833705557 ]
    mass: 91.224000
    reduced_to: 82
  - symbol: Zr # 91
    coordinates: [  0.048394846917997,  0.048394838066945,  0.381728167038890 ]
    mass: 91.224000
    reduced_to: 82
  - symbol: Zr # 92
    coordinates: [  0.381728180251331,  0.048394838066945,  0.381728167038890 ]
    mass: 91.224000
    reduced_to: 82
  - symbol: Zr # 93
    coordinates: [  0.715061513584664,  0.048394838066945,  0.381728167038890 ]
    mass: 91.224000
    reduced_to: 82
  - symbol: Zr # 94
    coordinates: [  0.048394846917997,  0.381728171400278,  0.381728167038890 ]
    mass: 91.224000
    reduced_to: 82
  - symbol: Zr # 95
    coordinates: [  0.381728180251331,  0.381728171400278,  0.381728167038890 ]
    mass: 91.224000
    reduced_to: 82
  - symbol: Zr # 96
    coordinates: [  0.715061513584664,  0.381728171400278,  0.381728167038890 ]
    mass: 91.224000
    reduced_to: 82
  - symbol: Zr # 97
    coordinates: [  0.048394846917997,  0.715061504733611,  0.381728167038890 ]
    mass: 91.224000
    reduced_to: 82
  - symbol: Zr # 98
    coordinates: [  0.381728180251331,  0.715061504733611,  0.381728167038890 ]
    mass: 91.224000
    reduced_to: 82
  - symbol: Zr # 99
    coordinates: [  0.715061513584664,  0.715061504733611,  0.381728167038890 ]
    mass: 91.224000
    reduced_to: 82
  - symbol: Zr # 100
    coordinates: [  0.048394846917997,  0.048394838066945,  0.715061500372223 ]
    mass: 91.224000
    reduced_to: 82
  - symbol: Zr # 101
    coordinates: [  0.381728180251331,  0.048394838066945,  0.715061500372223 ]
    mass: 91.224000
    reduced_to: 82
  - symbol: Zr # 102
    coordinates: [  0.715061513584664,  0.048394838066945,  0.715061500372223 ]
    mass: 91.224000
    reduced_to: 82
  - symbol: Zr # 103
    coordinates: [  0.048394846917997,  0.381728171400278,  0.715061500372223 ]
    mass: 91.224000
    reduced_to: 82
  - symbol: Zr # 104
    coordinates: [  0.381728180251331,  0.381728171400278,  0.715061500372223 ]
    mass: 91.224000
    reduced_to: 82
  - symbol: Zr # 105
    coordinates: [  0.715061513584664,  0.381728171400278,  0.715061500372223 ]
    mass: 91.224000
    reduced_to: 82
  - symbol: Zr # 106
    coordinates: [  0.048394846917997,  0.715061504733611,  0.715061500372223 ]
    mass: 91.224000
    reduced_to: 82
  - symbol: Zr # 107
    coordinates: [  0.381728180251331,  0.715061504733611,  0.715061500372223 ]
    mass: 91.224000
    reduced_to: 82
  - symbol: Zr # 108
    coordinates: [  0.715061513584664,  0.715061504733611,  0.715061500372223 ]
    mass: 91.224000
    reduced_to: 82
  - symbol: Zr # 109
    coordinates: [  0.284938495272099,  0.284938500065951,  0.284938496509029 ]
    mass: 91.224000
    reduced_to: 109
  - symbol: Zr # 110
    coordinates: [  0.618271828605433,  0.284938500065951,  0.284938496509029 ]
    mass: 91.224000
    reduced_to: 109
  - symbol: Zr # 111
    coordinates: [  0.951605161938766,  0.284938500065951,  0.284938496509029 ]
    mass: 91.224000
    reduced_to: 109
  - symbol: Zr # 112
    coordinates: [  0.284938495272099,  0.618271833399284,  0.284938496509029 ]
    mass: 91.224000
    reduced_to: 109
  - symbol: Zr # 113
    coordinates: [  0.618271828605433,  0.618271833399284,  0.284938496509029 ]
    mass: 91.224000
    reduced_to: 109
  - symbol: Zr # 114
    coordinates: [  0.951605161938766,  0.618271833399284,  0.284938496509029 ]
    mass: 91.224000
    reduced_to: 109
  - symbol: Zr # 115
    coordinates: [  0.284938495272099,  0.951605166732618,  0.284938496509029 ]
    mass: 91.224000
    reduced_to: 109
  - symbol: Zr # 116
    coordinates: [  0.618271828605433,  0.951605166732618,  0.284938496509029 ]
    mass: 91.224000
    reduced_to: 109
  - symbol: Zr # 117
    coordinates: [  0.951605161938766,  0.951605166732618,  0.284938496509029 ]
    mass: 91.224000
    reduced_to: 109
  - symbol: Zr # 118
    coordinates: [  0.284938495272099,  0.284938500065951,  0.618271829842362 ]
    mass: 91.224000
    reduced_to: 109
  - symbol: Zr # 119
    coordinates: [  0.618271828605433,  0.284938500065951,  0.618271829842362 ]
    mass: 91.224000
    reduced_to: 109
  - symbol: Zr # 120
    coordinates: [  0.951605161938766,  0.284938500065951,  0.618271829842362 ]
    mass: 91.224000
    reduced_to: 109
  - symbol: Zr # 121
    coordinates: [  0.284938495272099,  0.618271833399284,  0.618271829842362 ]
    mass: 91.224000
    reduced_to: 109
  - symbol: Zr # 122
    coordinates: [  0.618271828605433,  0.618271833399284,  0.618271829842362 ]
    mass: 91.224000
    reduced_to: 109
  - symbol: Zr # 123
    coordinates: [  0.951605161938766,  0.618271833399284,  0.618271829842362 ]
    mass: 91.224000
    reduced_to: 109
  - symbol: Zr # 124
    coordinates: [  0.284938495272099,  0.951605166732618,  0.618271829842362 ]
    mass: 91.224000
    reduced_to: 109
  - symbol: Zr # 125
    coordinates: [  0.618271828605433,  0.951605166732618,  0.618271829842362 ]
    mass: 91.224000
    reduced_to: 109
  - symbol: Zr # 126
    coordinates: [  0.951605161938766,  0.951605166732618,  0.618271829842362 ]
    mass: 91.224000
    reduced_to: 109
  - symbol: Zr # 127
    coordinates: [  0.284938495272099,  0.284938500065951,  0.951605163175696 ]
    mass: 91.224000
    reduced_to: 109
  - symbol: Zr # 128
    coordinates: [  0.618271828605433,  0.284938500065951,  0.951605163175696 ]
    mass: 91.224000
    reduced_to: 109
  - symbol: Zr # 129
    coordinates: [  0.951605161938766,  0.284938500065951,  0.951605163175696 ]
    mass: 91.224000
    reduced_to: 109
  - symbol: Zr # 130
    coordinates: [  0.284938495272099,  0.618271833399284,  0.951605163175696 ]
    mass: 91.224000
    reduced_to: 109
  - symbol: Zr # 131
    coordinates: [  0.618271828605433,  0.618271833399284,  0.951605163175696 ]
    mass: 91.224000
    reduced_to: 109
  - symbol: Zr # 132
    coordinates: [  0.951605161938766,  0.618271833399284,  0.951605163175696 ]
    mass: 91.224000
    reduced_to: 109
  - symbol: Zr # 133
    coordinates: [  0.284938495272099,  0.951605166732618,  0.951605163175696 ]
    mass: 91.224000
    reduced_to: 109
  - symbol: Zr # 134
    coordinates: [  0.618271828605433,  0.951605166732618,  0.951605163175696 ]
    mass: 91.224000
    reduced_to: 109
  - symbol: Zr # 135
    coordinates: [  0.951605161938766,  0.951605166732618,  0.951605163175696 ]
    mass: 91.224000
    reduced_to: 109
  - symbol: Zr # 136
    coordinates: [  0.215061508933465,  0.215061498280017,  0.215061508057053 ]
    mass: 91.224000
    reduced_to: 136
  - symbol: Zr # 137
    coordinates: [  0.548394842266799,  0.215061498280017,  0.215061508057053 ]
    mass: 91.224000
    reduced_to: 136
  - symbol: Zr # 138
    coordinates: [  0.881728175600132,  0.215061498280017,  0.215061508057053 ]
    mass: 91.224000
    reduced_to: 136
  - symbol: Zr # 139